% Model:              HMD_point_source_med2_100k_final_ref_output.mph
% Version:            COMSOL 4.4.0.195
% Date:               Jun 16 2016, 13:14
% Dimension:          3
% Nodes:              303
% Expressions:        1
% Description:        
% Length unit:        m
% x                       y                        z                        abs(emw.Hx) (A/m) @ freq=1e5
0                         0                        1                        1.2267839731805494E-6
0.7071067812              0.7071067812             1                        1.23624769719722E-5
1.4142135624              1.4142135624             1                        2.6235429235494233E-5
2.1213203436              2.1213203436             1                        4.655707957344645E-5
2.8284271247              2.8284271247             1                        6.354414675763533E-5
3.5355339059              3.5355339059             1                        7.717951409101517E-5
4.2426406871              4.2426406871             1                        8.039197892214564E-5
4.9497474683              4.9497474683             1                        8.307146698461701E-5
5.6568542495              5.6568542495             1                        7.91202451331323E-5
6.3639610307              6.3639610307             1                        7.814988275088908E-5
7.0710678119              7.0710678119             1                        6.853002840287094E-5
7.7781745931              7.7781745931             1                        6.405703540312214E-5
8.4852813742              8.4852813742             1                        5.626623081443046E-5
9.1923881554              9.1923881554             1                        4.818116048489089E-5
9.8994949366              9.8994949366             1                        4.2390311271508174E-5
10.6066017178             10.6066017178            1                        3.717508987728572E-5
11.313708499              11.313708499             1                        3.321555818713597E-5
12.0208152802             12.0208152802            1                        2.8437499451821822E-5
12.7279220614             12.7279220614            1                        2.4802588653368973E-5
13.4350288425             13.4350288425            1                        2.269491136009692E-5
14.1421356237             14.1421356237            1                        2.038271529355921E-5
14.8492424049             14.8492424049            1                        1.8164088984469733E-5
15.5563491861             15.5563491861            1                        1.6171378618876087E-5
16.2634559673             16.2634559673            1                        1.4405495779260702E-5
16.9705627485             16.9705627485            1                        1.3037508666587235E-5
17.6776695297             17.6776695297            1                        1.1588457420711997E-5
18.3847763109             18.3847763109            1                        1.0652555659298553E-5
19.091883092              19.091883092             1                        9.719060428676941E-6
19.7989898732             19.7989898732            1                        8.868157586342E-6
20.5060966544             20.5060966544            1                        7.970422366393372E-6
21.2132034356             21.2132034356            1                        7.126979285839685E-6
21.9203102168             21.9203102168            1                        6.608847589362198E-6
22.627416998              22.627416998             1                        6.091013754252286E-6
23.3345237792             23.3345237792            1                        5.573560803113626E-6
24.0416305603             24.0416305603            1                        5.056605667312784E-6
24.7487373415             24.7487373415            1                        4.728428036288259E-6
25.4558441227             25.4558441227            1                        4.296355034131631E-6
26.1629509039             26.1629509039            1                        4.037024210045509E-6
26.8700576851             26.8700576851            1                        3.7778419285008274E-6
27.5771644663             27.5771644663            1                        3.463405137922899E-6
28.2842712475             28.2842712475            1                        3.221342144913235E-6
28.9913780286             28.9913780286            1                        2.9794239121856744E-6
29.6984848098             29.6984848098            1                        2.8028550482600254E-6
30.405591591              30.405591591             1                        2.5509312541878834E-6
31.1126983722             31.1126983722            1                        2.4073314949622073E-6
31.8198051534             31.8198051534            1                        2.2638112936648946E-6
32.5269119346             32.5269119346            1                        2.120386805197566E-6
33.2340187158             33.2340187158            1                        1.977011546607711E-6
33.941125497              33.941125497             1                        1.8521308234992341E-6
34.6482322781             34.6482322781            1                        1.743345786245107E-6
35.3553390593             35.3553390593            1                        1.6434263317225502E-6
36.0624458405             36.0624458405            1                        1.5435567129910508E-6
36.7695526217             36.7695526217            1                        1.4529408011693382E-6
37.4766594029             37.4766594029            1                        1.3779188142524641E-6
38.1837661841             38.1837661841            1                        1.2961717406476875E-6
38.8908729653             38.8908729653            1                        1.2316458484835434E-6
39.5979797464             39.5979797464            1                        1.156139273987176E-6
40.3050865276             40.3050865276            1                        1.0976345283495559E-6
41.0121933088             41.0121933088            1                        1.0391536750805201E-6
41.71930009               41.71930009              1                        9.80700988416041E-7
42.4264068712             42.4264068712            1                        9.222818238291958E-7
43.1335136524             43.1335136524            1                        8.910036790315669E-7
43.8406204336             43.8406204336            1                        8.379339369347537E-7
44.5477272148             44.5477272148            1                        7.990140247805869E-7
45.2548339959             45.2548339959            1                        7.601047260044751E-7
45.9619407771             45.9619407771            1                        7.212077583779934E-7
46.6690475583             46.6690475583            1                        6.86719491033015E-7
47.3761543395             47.3761543395            1                        6.550741410193237E-7
48.0832611207             48.0832611207            1                        6.255788605458196E-7
48.7903679019             48.7903679019            1                        5.960897216595514E-7
49.4974746831             49.4974746831            1                        5.707562979119082E-7
50.2045814642             50.2045814642            1                        5.452502850860528E-7
50.9116882454             50.9116882454            1                        5.198453284319892E-7
51.6187950266             51.6187950266            1                        4.96872766746039E-7
52.3259018078             52.3259018078            1                        4.765154603029775E-7
53.033008589              53.033008589             1                        4.5615995293646826E-7
53.7401153702             53.7401153702            1                        4.3580649673861567E-7
54.4472221514             54.4472221514            1                        4.1832864658643693E-7
55.1543289326             55.1543289326            1                        4.02192678449397E-7
55.8614357137             55.8614357137            1                        3.8531349037589486E-7
56.5685424949             56.5685424949            1                        3.694502502565739E-7
57.2756492761             57.2756492761            1                        3.5558977573984336E-7
57.9827560573             57.9827560573            1                        3.4172942991527566E-7
58.6898628385             58.6898628385            1                        3.278692291038731E-7
59.3969696197             59.3969696197            1                        3.1556469881082186E-7
60.1040764009             60.1040764009            1                        3.0423756385980163E-7
60.811183182              60.811183182             1                        2.936385447620795E-7
61.5182899632             61.5182899632            1                        2.8303960216486497E-7
62.2253967444             62.2253967444            1                        2.726120997363606E-7
62.9325035256             62.9325035256            1                        2.625047415277641E-7
63.6396103068             63.6396103068            1                        2.5238947729734187E-7
64.346717088              64.346717088             1                        2.437894486732057E-7
65.0538238692             65.0538238692            1                        2.3517668020865497E-7
65.7609306503             65.7609306503            1                        2.2748044050365426E-7
66.4680374315             66.4680374315            1                        2.19786973791245E-7
67.1751442127             67.1751442127            1                        2.122626666560284E-7
67.8822509939             67.8822509939            1                        2.0473860469091216E-7
68.5893577751             68.5893577751            1                        1.9880515578687494E-7
69.2964645563             69.2964645563            1                        1.9227576162246463E-7
70.0035713375             70.0035713375            1                        1.8634872962481718E-7
70.7106781187             70.7106781187            1                        1.8042220613646368E-7
0                         0                        -2                       6.781588335042147E-6
0.7071067812              0.7071067812             -2                       5.0530296135764984E-5
1.4142135624              1.4142135624             -2                       1.6110163445022085E-4
2.1213203436              2.1213203436             -2                       2.7094450912766463E-4
2.8284271247              2.8284271247             -2                       3.180003657776131E-4
3.5355339059              3.5355339059             -2                       3.149756730935855E-4
4.2426406871              4.2426406871             -2                       2.821171706018403E-4
4.9497474683              4.9497474683             -2                       2.410007259590299E-4
5.6568542495              5.6568542495             -2                       1.974177727397206E-4
6.3639610307              6.3639610307             -2                       1.641063414181743E-4
7.0710678119              7.0710678119             -2                       1.3514883894336687E-4
7.7781745931              7.7781745931             -2                       1.1040749043410505E-4
8.4852813742              8.4852813742             -2                       9.195163247020251E-5
9.1923881554              9.1923881554             -2                       7.721537765960111E-5
9.8994949366              9.8994949366             -2                       6.360338298296565E-5
10.6066017178             10.6066017178            -2                       5.3419582042659585E-5
11.313708499              11.313708499             -2                       4.5668302304512115E-5
12.0208152802             12.0208152802            -2                       3.950337552173562E-5
12.7279220614             12.7279220614            -2                       3.4226228785573556E-5
13.4350288425             13.4350288425            -2                       2.9404199866911993E-5
14.1421356237             14.1421356237            -2                       2.52113802002883E-5
14.8492424049             14.8492424049            -2                       2.27697999652641E-5
15.5563491861             15.5563491861            -2                       1.986556690609813E-5
16.2634559673             16.2634559673            -2                       1.737522732571845E-5
16.9705627485             16.9705627485            -2                       1.5419757891877982E-5
17.6776695297             17.6776695297            -2                       1.3671121229838686E-5
18.3847763109             18.3847763109            -2                       1.2468022209007758E-5
19.091883092              19.091883092             -2                       1.1075565078894784E-5
19.7989898732             19.7989898732            -2                       9.97061684259285E-6
20.5060966544             20.5060966544            -2                       9.022754504199098E-6
21.2132034356             21.2132034356            -2                       8.241932516696646E-6
21.9203102168             21.9203102168            -2                       7.37249916238087E-6
22.627416998              22.627416998             -2                       6.764838555847169E-6
23.3345237792             23.3345237792            -2                       6.157244821629286E-6
24.0416305603             24.0416305603            -2                       5.549739923696684E-6
24.7487373415             24.7487373415            -2                       5.0985250778046565E-6
25.4558441227             25.4558441227            -2                       4.7507571819670456E-6
26.1629509039             26.1629509039            -2                       4.403919312191748E-6
26.8700576851             26.8700576851            -2                       4.086402145084915E-6
27.5771644663             27.5771644663            -2                       3.751485022570573E-6
28.2842712475             28.2842712475            -2                       3.479769299859399E-6
28.9913780286             28.9913780286            -2                       3.208094261888992E-6
29.6984848098             29.6984848098            -2                       3.019259843823061E-6
30.405591591              30.405591591             -2                       2.803831261764103E-6
31.1126983722             31.1126983722            -2                       2.602191934083147E-6
31.8198051534             31.8198051534            -2                       2.448170446489884E-6
32.5269119346             32.5269119346            -2                       2.294279633917796E-6
33.2340187158             33.2340187158            -2                       2.1436390224277034E-6
33.941125497              33.941125497             -2                       2.0114057946398237E-6
34.6482322781             34.6482322781            -2                       1.890901020142134E-6
35.3553390593             35.3553390593            -2                       1.7713062579860404E-6
36.0624458405             36.0624458405            -2                       1.6687110160885575E-6
36.7695526217             36.7695526217            -2                       1.5661320696148946E-6
37.4766594029             37.4766594029            -2                       1.4916080220702306E-6
38.1837661841             38.1837661841            -2                       1.3991385181290375E-6
38.8908729653             38.8908729653            -2                       1.325125694561665E-6
39.5979797464             39.5979797464            -2                       1.2635809030785563E-6
40.3050865276             40.3050865276            -2                       1.1885477466547826E-6
41.0121933088             41.0121933088            -2                       1.1241888964577806E-6
41.71930009               41.71930009              -2                       1.0650017707389319E-6
42.4264068712             42.4264068712            -2                       1.0139461210535368E-6
43.1335136524             43.1335136524            -2                       9.579392728187168E-7
43.8406204336             43.8406204336            -2                       9.080381359595491E-7
44.5477272148             44.5477272148            -2                       8.639403765942481E-7
45.2548339959             45.2548339959            -2                       8.231873399776102E-7
45.9619407771             45.9619407771            -2                       7.824038275719448E-7
46.6690475583             46.6690475583            -2                       7.464881121510767E-7
47.3761543395             47.3761543395            -2                       7.121557377609859E-7
48.0832611207             48.0832611207            -2                       6.803099322123724E-7
48.7903679019             48.7903679019            -2                       6.484745609297391E-7
49.4974746831             49.4974746831            -2                       6.21647561505044E-7
50.2045814642             50.2045814642            -2                       5.927201174843763E-7
50.9116882454             50.9116882454            -2                       5.65494974125746E-7
51.6187950266             51.6187950266            -2                       5.402361892680366E-7
52.3259018078             52.3259018078            -2                       5.183848588989285E-7
53.033008589              53.033008589             -2                       4.965401769532496E-7
53.7401153702             53.7401153702            -2                       4.747030612647839E-7
54.4472221514             54.4472221514            -2                       4.5395082797009047E-7
55.1543289326             55.1543289326            -2                       4.322692269040238E-7
55.8614357137             55.8614357137            -2                       4.179047341556705E-7
56.5685424949             56.5685424949            -2                       4.013365705068412E-7
57.2756492761             57.2756492761            -2                       3.8637664317558913E-7
57.9827560573             57.9827560573            -2                       3.714209555580686E-7
58.6898628385             58.6898628385            -2                       3.567488498213048E-7
59.3969696197             59.3969696197            -2                       3.418049513597942E-7
60.1040764009             60.1040764009            -2                       3.2833405905740124E-7
60.811183182              60.811183182             -2                       3.168118534474154E-7
61.5182899632             61.5182899632            -2                       3.0505884201566904E-7
62.2253967444             62.2253967444            -2                       2.9431980366437345E-7
62.9325035256             62.9325035256            -2                       2.8351199818974816E-7
63.6396103068             63.6396103068            -2                       2.72728088586076E-7
64.346717088              64.346717088             -2                       2.6196048930825E-7
65.0538238692             65.0538238692            -2                       2.512112976797681E-7
65.7609306503             65.7609306503            -2                       2.43547460923734E-7
66.4680374315             66.4680374315            -2                       2.3544816627353433E-7
67.1751442127             67.1751442127            -2                       2.2718688001552476E-7
67.8822509939             67.8822509939            -2                       2.189857266131873E-7
68.5893577751             68.5893577751            -2                       2.123277313264069E-7
69.2964645563             69.2964645563            -2                       2.057212900029936E-7
70.0035713375             70.0035713375            -2                       1.983187002329244E-7
70.7106781187             70.7106781187            -2                       1.9069450964576063E-7
0                         0                        -7                       0.8069403864722112
0.7071067812              0.7071067812             -7                       0.11808796120016844
1.4142135624              1.4142135624             -7                       0.029565558112604744
2.1213203436              2.1213203436             -7                       0.009337114216895976
2.8284271247              2.8284271247             -7                       0.003815754341053459
3.5355339059              3.5355339059             -7                       0.0018938932443204684
4.2426406871              4.2426406871             -7                       0.0012197723659146456
4.9497474683              4.9497474683             -7                       6.865041542312652E-4
5.6568542495              5.6568542495             -7                       4.6040211975970226E-4
6.3639610307              6.3639610307             -7                       3.245812287536647E-4
7.0710678119              7.0710678119             -7                       2.4345297304172718E-4
7.7781745931              7.7781745931             -7                       1.8278170266471292E-4
8.4852813742              8.4852813742             -7                       1.3835340783632845E-4
9.1923881554              9.1923881554             -7                       1.0860777516071797E-4
9.8994949366              9.8994949366             -7                       8.707183336900653E-5
10.6066017178             10.6066017178            -7                       7.344706003490235E-5
11.313708499              11.313708499             -7                       5.83026797385772E-5
12.0208152802             12.0208152802            -7                       4.832415912625352E-5
12.7279220614             12.7279220614            -7                       4.145119556079872E-5
13.4350288425             13.4350288425            -7                       3.520619036823685E-5
14.1421356237             14.1421356237            -7                       2.9778922554981456E-5
14.8492424049             14.8492424049            -7                       2.636454971372373E-5
15.5563491861             15.5563491861            -7                       2.2933114827534585E-5
16.2634559673             16.2634559673            -7                       1.9983721226683927E-5
16.9705627485             16.9705627485            -7                       1.7606861124389864E-5
17.6776695297             17.6776695297            -7                       1.5536496386386986E-5
18.3847763109             18.3847763109            -7                       1.3792340635357468E-5
19.091883092              19.091883092             -7                       1.2327626645265049E-5
19.7989898732             19.7989898732            -7                       1.0982488250763402E-5
20.5060966544             20.5060966544            -7                       9.96241880290682E-6
21.2132034356             21.2132034356            -7                       9.067654297155093E-6
21.9203102168             21.9203102168            -7                       8.123447343286852E-6
22.627416998              22.627416998             -7                       7.4368582563231525E-6
23.3345237792             23.3345237792            -7                       6.8042376360860684E-6
24.0416305603             24.0416305603            -7                       6.223364387948774E-6
24.7487373415             24.7487373415            -7                       5.6758332810875305E-6
25.4558441227             25.4558441227            -7                       5.269054680081196E-6
26.1629509039             26.1629509039            -7                       4.8283300335756936E-6
26.8700576851             26.8700576851            -7                       4.457543299890798E-6
27.5771644663             27.5771644663            -7                       4.139636505339743E-6
28.2842712475             28.2842712475            -7                       3.8220173916153195E-6
28.9913780286             28.9913780286            -7                       3.568850329720273E-6
29.6984848098             29.6984848098            -7                       3.3350028634200912E-6
30.405591591              30.405591591             -7                       3.0951405658205504E-6
31.1126983722             31.1126983722            -7                       2.8571953071996236E-6
31.8198051534             31.8198051534            -7                       2.6506518708213255E-6
32.5269119346             32.5269119346            -7                       2.5000025511373644E-6
33.2340187158             33.2340187158            -7                       2.3523738880397494E-6
33.941125497              33.941125497             -7                       2.2049754261516562E-6
34.6482322781             34.6482322781            -7                       2.0664713947738284E-6
35.3553390593             35.3553390593            -7                       1.941573298848647E-6
36.0624458405             36.0624458405            -7                       1.8434878905681134E-6
36.7695526217             36.7695526217            -7                       1.7373075718099612E-6
37.4766594029             37.4766594029            -7                       1.6379181464556592E-6
38.1837661841             38.1837661841            -7                       1.5489178630725696E-6
38.8908729653             38.8908729653            -7                       1.4656063763593038E-6
39.5979797464             39.5979797464            -7                       1.3776729746191787E-6
40.3050865276             40.3050865276            -7                       1.3043152334260635E-6
41.0121933088             41.0121933088            -7                       1.2311212104630848E-6
41.71930009               41.71930009              -7                       1.174937468878128E-6
42.4264068712             42.4264068712            -7                       1.1125009624457994E-6
43.1335136524             43.1335136524            -7                       1.057963968580404E-6
43.8406204336             43.8406204336            -7                       9.99642119927944E-7
44.5477272148             44.5477272148            -7                       9.54962047927914E-7
45.2548339959             45.2548339959            -7                       9.103839231439581E-7
45.9619407771             45.9619407771            -7                       8.659234905691292E-7
46.6690475583             46.6690475583            -7                       8.266924889877988E-7
47.3761543395             47.3761543395            -7                       7.876258446105464E-7
48.0832611207             48.0832611207            -7                       7.486817039566614E-7
48.7903679019             48.7903679019            -7                       7.162951218491531E-7
49.4974746831             49.4974746831            -7                       6.868006737081563E-7
50.2045814642             50.2045814642            -7                       6.573819720232453E-7
50.9116882454             50.9116882454            -7                       6.277602705668566E-7
51.6187950266             51.6187950266            -7                       6.007057330870327E-7
52.3259018078             52.3259018078            -7                       5.760341854298907E-7
53.033008589              53.033008589             -7                       5.514398416868156E-7
53.7401153702             53.7401153702            -7                       5.269335123245923E-7
54.4472221514             54.4472221514            -7                       5.078890674752526E-7
55.1543289326             55.1543289326            -7                       4.864013366064269E-7
55.8614357137             55.8614357137            -7                       4.645454511828366E-7
56.5685424949             56.5685424949            -7                       4.468915141416525E-7
57.2756492761             57.2756492761            -7                       4.291801652067973E-7
57.9827560573             57.9827560573            -7                       4.11534762639249E-7
58.6898628385             58.6898628385            -7                       3.9519273446084786E-7
59.3969696197             59.3969696197            -7                       3.7927994204033464E-7
60.1040764009             60.1040764009            -7                       3.634328926436217E-7
60.811183182              60.811183182             -7                       3.518326699349736E-7
61.5182899632             61.5182899632            -7                       3.386096844782999E-7
62.2253967444             62.2253967444            -7                       3.245661405626662E-7
62.9325035256             62.9325035256            -7                       3.1399626501082925E-7
63.6396103068             63.6396103068            -7                       3.024055099231675E-7
64.346717088              64.346717088             -7                       2.908589832652694E-7
65.0538238692             65.0538238692            -7                       2.7936216920584586E-7
65.7609306503             65.7609306503            -7                       2.7017839330686415E-7
66.4680374315             66.4680374315            -7                       2.602947425503631E-7
67.1751442127             67.1751442127            -7                       2.507197308227328E-7
67.8822509939             67.8822509939            -7                       2.4225405744727076E-7
68.5893577751             68.5893577751            -7                       2.3391081515524706E-7
69.2964645563             69.2964645563            -7                       2.2560033288233796E-7
70.0035713375             70.0035713375            -7                       2.1766180116807643E-7
70.7106781187             70.7106781187            -7                       2.1051133472462088E-7
