% Model:              HMD_point_source_med2_100k_final_ref_output.mph
% Version:            COMSOL 4.4.0.195
% Date:               Jun 16 2016, 13:14
% Dimension:          3
% Nodes:              303
% Expressions:        1
% Description:        
% Length unit:        m
% x                       y                        z                        abs(emw.Hz) (A/m) @ freq=1e5
0                         0                        1                        1.7085786192798715E-5
0                         1                        1                        8.834405404425045E-5
0                         2                        1                        1.871177350515759E-4
0                         3                        1                        2.4742593245330566E-4
0                         4                        1                        2.5264594330439376E-4
0                         5                        1                        2.4410862132726252E-4
0                         6                        1                        2.223480886548625E-4
0                         7                        1                        1.9244127790183274E-4
0                         8                        1                        1.610123790937114E-4
0                         9                        1                        1.3721591811124065E-4
0                         10                       1                        1.1122298757805121E-4
0                         11                       1                        9.011281367479957E-5
0                         12                       1                        7.415628861059593E-5
0                         13                       1                        5.967351870508929E-5
0                         14                       1                        4.861011501282851E-5
0                         15                       1                        3.993147800441373E-5
0                         16                       1                        3.3320107268391977E-5
0                         17                       1                        2.7470286373946522E-5
0                         18                       1                        2.3192342033990778E-5
0                         19                       1                        1.8964565483721497E-5
0                         20                       1                        1.6282209027538894E-5
0                         21                       1                        1.379096396413168E-5
0                         22                       1                        1.1573307665500392E-5
0                         23                       1                        9.876949463234544E-6
0                         24                       1                        8.545153511759796E-6
0                         25                       1                        7.351308026647067E-6
0                         26                       1                        6.3832116315739034E-6
0                         27                       1                        5.552858316602801E-6
0                         28                       1                        4.834327006344787E-6
0                         29                       1                        4.2210256692362245E-6
0                         30                       1                        3.708622376819115E-6
0                         31                       1                        3.2934538746288437E-6
0                         32                       1                        2.9007944772898128E-6
0                         33                       1                        2.5832904898312947E-6
0                         34                       1                        2.292202412526666E-6
0                         35                       1                        2.0467719871285345E-6
0                         36                       1                        1.8326719075510814E-6
0                         37                       1                        1.6440976122422852E-6
0                         38                       1                        1.4698250391277874E-6
0                         39                       1                        1.326352219931283E-6
0                         40                       1                        1.2005184051996911E-6
0                         41                       1                        1.0880586787979872E-6
0                         42                       1                        9.846523374287931E-7
0                         43                       1                        8.984540455760197E-7
0                         44                       1                        8.124840227945224E-7
0                         45                       1                        7.415546704475854E-7
0                         46                       1                        6.76189144539816E-7
0                         47                       1                        6.180619423844816E-7
0                         48                       1                        5.669415752209898E-7
0                         49                       1                        5.195892734622618E-7
0                         50                       1                        4.7535205972935454E-7
0                         51                       1                        4.373330946449497E-7
0                         52                       1                        4.0251264198523603E-7
0                         53                       1                        3.705283586300729E-7
0                         54                       1                        3.415047817214421E-7
0                         55                       1                        3.1489671536825667E-7
0                         56                       1                        2.907994500541025E-7
0                         57                       1                        2.689174519588813E-7
0                         58                       1                        2.484496590007247E-7
0                         59                       1                        2.2958121938012644E-7
0                         60                       1                        2.1275256592348477E-7
0                         61                       1                        1.9680940351847967E-7
0                         62                       1                        1.8228512368231378E-7
0                         63                       1                        1.6887187430488863E-7
0                         64                       1                        1.563907325403872E-7
0                         65                       1                        1.4517871036990354E-7
0                         66                       1                        1.3446341589081433E-7
0                         67                       1                        1.2464259427741176E-7
0                         68                       1                        1.1551182960134457E-7
0                         69                       1                        1.0717894068574703E-7
0                         70                       1                        9.928128838184588E-8
0                         71                       1                        9.200600407023901E-8
0                         72                       1                        8.52004071950394E-8
0                         73                       1                        7.889265793997924E-8
0                         74                       1                        7.290721515367571E-8
0                         75                       1                        6.756429374470753E-8
0                         76                       1                        6.242839755539948E-8
0                         77                       1                        5.758464068600068E-8
0                         78                       1                        5.3107231669301617E-8
0                         79                       1                        4.898027655043871E-8
0                         80                       1                        4.5109850500019686E-8
0                         81                       1                        4.1500847232260116E-8
0                         82                       1                        3.8089908866090516E-8
0                         83                       1                        3.488704628175386E-8
0                         84                       1                        3.1945802741001115E-8
0                         85                       1                        2.9131587201161226E-8
0                         86                       1                        2.6550186846707785E-8
0                         87                       1                        2.412485392369008E-8
0                         88                       1                        2.1830803073774835E-8
0                         89                       1                        1.9722257023620455E-8
0                         90                       1                        1.775968508149234E-8
0                         91                       1                        1.588448902713928E-8
0                         92                       1                        1.415959281085665E-8
0                         93                       1                        1.2537758920756801E-8
0                         94                       1                        1.1020996520044049E-8
0                         95                       1                        9.626379962381498E-9
0                         96                       1                        8.313130621271528E-9
0                         97                       1                        7.156912788975297E-9
0                         98                       1                        6.0174738416800246E-9
0                         99                       1                        4.958135580962993E-9
0                         100                      1                        4.085142090294854E-9
0                         0                        -2.5                     1.31371477498243E-5
0                         1                        -2.5                     7.105142547961923E-4
0                         2                        -2.5                     0.0012387582042454714
0                         3                        -2.5                     0.0013813141272031382
0                         4                        -2.5                     0.0010676508402643493
0                         5                        -2.5                     7.903243301601941E-4
0                         6                        -2.5                     5.486826425722508E-4
0                         7                        -2.5                     3.9351798380853477E-4
0                         8                        -2.5                     2.7401780090679644E-4
0                         9                        -2.5                     1.9108233771054204E-4
0                         10                       -2.5                     1.4064515291823483E-4
0                         11                       -2.5                     1.0202546018016923E-4
0                         12                       -2.5                     7.579724060769783E-5
0                         13                       -2.5                     5.812103835440045E-5
0                         14                       -2.5                     4.4429887499679004E-5
0                         15                       -2.5                     3.466715538920955E-5
0                         16                       -2.5                     2.743648401918743E-5
0                         17                       -2.5                     2.1734598984218364E-5
0                         18                       -2.5                     1.76081538946527E-5
0                         19                       -2.5                     1.4420483683766724E-5
0                         20                       -2.5                     1.186064949753813E-5
0                         21                       -2.5                     9.886410198066322E-6
0                         22                       -2.5                     8.279275409655881E-6
0                         23                       -2.5                     6.9847433918833204E-6
0                         24                       -2.5                     5.954627367396588E-6
0                         25                       -2.5                     5.084019107315471E-6
0                         26                       -2.5                     4.387143116919498E-6
0                         27                       -2.5                     3.816248501013449E-6
0                         28                       -2.5                     3.323495472184988E-6
0                         29                       -2.5                     2.919074434002438E-6
0                         30                       -2.5                     2.5767370250622283E-6
0                         31                       -2.5                     2.2775601247526423E-6
0                         32                       -2.5                     2.030382581307747E-6
0                         33                       -2.5                     1.816777918427951E-6
0                         34                       -2.5                     1.6277612866099085E-6
0                         35                       -2.5                     1.4683870365266565E-6
0                         36                       -2.5                     1.3275995126355703E-6
0                         37                       -2.5                     1.1999362213941062E-6
0                         38                       -2.5                     1.0949757695924087E-6
0                         39                       -2.5                     9.98767166845887E-7
0                         40                       -2.5                     9.117160838431808E-7
0                         41                       -2.5                     8.373049405852577E-7
0                         42                       -2.5                     7.694762275006287E-7
0                         43                       -2.5                     7.063591566842823E-7
0                         44                       -2.5                     6.535225631987114E-7
0                         45                       -2.5                     6.037907453654956E-7
0                         46                       -2.5                     5.580904476546222E-7
0                         47                       -2.5                     5.182358841116269E-7
0                         48                       -2.5                     4.810915158400721E-7
0                         49                       -2.5                     4.463486595007946E-7
0                         50                       -2.5                     4.162826668613992E-7
0                         51                       -2.5                     3.8777777933192573E-7
0                         52                       -2.5                     3.616509065184696E-7
0                         53                       -2.5                     3.3777756539677936E-7
0                         54                       -2.5                     3.1551823259239923E-7
0                         55                       -2.5                     2.9491744351359164E-7
0                         56                       -2.5                     2.7601676574323957E-7
0                         57                       -2.5                     2.584259710483981E-7
0                         58                       -2.5                     2.4209259000603653E-7
0                         59                       -2.5                     2.269482789334952E-7
0                         60                       -2.5                     2.1280546831307752E-7
0                         61                       -2.5                     1.9951147720678327E-7
0                         62                       -2.5                     1.8737742797694738E-7
0                         63                       -2.5                     1.7591851249172704E-7
0                         64                       -2.5                     1.6498558854863153E-7
0                         65                       -2.5                     1.5519861522951792E-7
0                         66                       -2.5                     1.458466061638369E-7
0                         67                       -2.5                     1.3701195380334918E-7
0                         68                       -2.5                     1.2879179703860671E-7
0                         69                       -2.5                     1.21057477793349E-7
0                         70                       -2.5                     1.1375439519570998E-7
0                         71                       -2.5                     1.0696893149244838E-7
0                         72                       -2.5                     1.0055546906892474E-7
0                         73                       -2.5                     9.459250088101762E-8
0                         74                       -2.5                     8.890340825758373E-8
0                         75                       -2.5                     8.355242978180077E-8
0                         76                       -2.5                     7.857944509582855E-8
0                         77                       -2.5                     7.388114904297178E-8
0                         78                       -2.5                     6.938948898796831E-8
0                         79                       -2.5                     6.520180977319739E-8
0                         80                       -2.5                     6.129678078347139E-8
0                         81                       -2.5                     5.758377304772117E-8
0                         82                       -2.5                     5.4098743453475573E-8
0                         83                       -2.5                     5.081621501420271E-8
0                         84                       -2.5                     4.771959150603165E-8
0                         85                       -2.5                     4.4787672499580355E-8
0                         86                       -2.5                     4.201201515881546E-8
0                         87                       -2.5                     3.952865620200477E-8
0                         88                       -2.5                     3.708475705065394E-8
0                         89                       -2.5                     3.482390595883633E-8
0                         90                       -2.5                     3.269329910241001E-8
0                         91                       -2.5                     3.069672478038204E-8
0                         92                       -2.5                     2.8802599675203818E-8
0                         93                       -2.5                     2.7068604629512043E-8
0                         94                       -2.5                     2.5422715085743088E-8
0                         95                       -2.5                     2.389622762686758E-8
0                         96                       -2.5                     2.245454264766988E-8
0                         97                       -2.5                     2.1120492268298478E-8
0                         98                       -2.5                     1.9868045302092865E-8
0                         99                       -2.5                     1.8722144794340172E-8
0                         100                      -2.5                     1.7678415846230567E-8
0                         0                        -7                       0.4069859094277104
0                         1                        -7                       0.03749118546896259
0                         2                        -7                       0.0017922991243226208
0                         3                        -7                       0.002562251522811234
0                         4                        -7                       2.550485230037796E-5
0                         5                        -7                       1.8367168191122063E-4
0                         6                        -7                       7.0997498214336E-5
0                         7                        -7                       2.0937598847856838E-5
0                         8                        -7                       1.727244679310345E-5
0                         9                        -7                       1.487186189547983E-5
0                         10                       -7                       1.1767379808289319E-5
0                         11                       -7                       1.0672963827373556E-5
0                         12                       -7                       9.615167525647643E-6
0                         13                       -7                       8.794576625609925E-6
0                         14                       -7                       8.042198057046312E-6
0                         15                       -7                       7.1152724311804315E-6
0                         16                       -7                       6.34601063511795E-6
0                         17                       -7                       5.869777781542325E-6
0                         18                       -7                       5.498630858406039E-6
0                         19                       -7                       4.897220177134223E-6
0                         20                       -7                       4.486729465267816E-6
0                         21                       -7                       4.093062613720229E-6
0                         22                       -7                       3.7546831082360104E-6
0                         23                       -7                       3.4722893891896436E-6
0                         24                       -7                       3.167173346205096E-6
0                         25                       -7                       2.9195726087509656E-6
0                         26                       -7                       2.68606772010647E-6
0                         27                       -7                       2.481713633888103E-6
0                         28                       -7                       2.2793859159897283E-6
0                         29                       -7                       2.1135979065015454E-6
0                         30                       -7                       1.9734813193145596E-6
0                         31                       -7                       1.820488509499196E-6
0                         32                       -7                       1.7020003842561615E-6
0                         33                       -7                       1.584877539430013E-6
0                         34                       -7                       1.4695480558600328E-6
0                         35                       -7                       1.387304053236621E-6
0                         36                       -7                       1.282781903925625E-6
0                         37                       -7                       1.1943833702191467E-6
0                         38                       -7                       1.1135483630024454E-6
0                         39                       -7                       1.0481813649623907E-6
0                         40                       -7                       9.79438279901277E-7
0                         41                       -7                       9.157695352150329E-7
0                         42                       -7                       8.594237469279583E-7
0                         43                       -7                       8.072111083174371E-7
0                         44                       -7                       7.588511228861767E-7
0                         45                       -7                       7.12310863622672E-7
0                         46                       -7                       6.697738632136474E-7
0                         47                       -7                       6.298216492430236E-7
0                         48                       -7                       5.928096156687992E-7
0                         49                       -7                       5.563460326344651E-7
0                         50                       -7                       5.242972348362958E-7
0                         51                       -7                       4.950418366742221E-7
0                         52                       -7                       4.6675465732809887E-7
0                         53                       -7                       4.3831370847280777E-7
0                         54                       -7                       4.1521622260537147E-7
0                         55                       -7                       3.922237646538579E-7
0                         56                       -7                       3.696845590505192E-7
0                         57                       -7                       3.493750041101514E-7
0                         58                       -7                       3.3047264370761103E-7
0                         59                       -7                       3.122775024143203E-7
0                         60                       -7                       2.953201083886675E-7
0                         61                       -7                       2.7909989078377555E-7
0                         62                       -7                       2.6405443688984626E-7
0                         63                       -7                       2.501580817586609E-7
0                         64                       -7                       2.3655611896251045E-7
0                         65                       -7                       2.2397883083898464E-7
0                         66                       -7                       2.1223505648868863E-7
0                         67                       -7                       2.0103635274306435E-7
0                         68                       -7                       1.9077836286238582E-7
0                         69                       -7                       1.8035946205916736E-7
0                         70                       -7                       1.7111425407694289E-7
0                         71                       -7                       1.6202676391077584E-7
0                         72                       -7                       1.5360953788199187E-7
0                         73                       -7                       1.4602448931855378E-7
0                         74                       -7                       1.3802430372524814E-7
0                         75                       -7                       1.3094119355021303E-7
0                         76                       -7                       1.2422934111649812E-7
0                         77                       -7                       1.1774672986514704E-7
0                         78                       -7                       1.1164097007377728E-7
0                         79                       -7                       1.059928859162824E-7
0                         80                       -7                       1.0060251537828165E-7
0                         81                       -7                       9.549295349824463E-8
0                         82                       -7                       9.067382962281823E-8
0                         83                       -7                       8.587148380687735E-8
0                         84                       -7                       8.17356946680617E-8
0                         85                       -7                       7.762486924108708E-8
0                         86                       -7                       7.372708749870851E-8
0                         87                       -7                       6.994798151918135E-8
0                         88                       -7                       6.641790275605628E-8
0                         89                       -7                       6.315739988688117E-8
0                         90                       -7                       5.9979620145782E-8
0                         91                       -7                       5.698102604165953E-8
0                         92                       -7                       5.426212839983572E-8
0                         93                       -7                       5.150145047186094E-8
0                         94                       -7                       4.903156045005681E-8
0                         95                       -7                       4.660829616701774E-8
0                         96                       -7                       4.43792335443786E-8
0                         97                       -7                       4.2215873512906985E-8
0                         98                       -7                       4.0111484490010654E-8
0                         99                       -7                       3.825185935175935E-8
0                         100                      -7                       3.642786486226048E-8
