% Model:              VMD_layered_2016_1k_Hermes_soil2_output.mph
% Version:            COMSOL 4.4.0.195
% Date:               May 24 2016, 09:54
% Dimension:          2
% Nodes:              303
% Expressions:        2
% Description:        Magnetic field, r component, Magnetic field, z component
% Length unit:        m
% r                       z                        abs(emw.Hr) (A/m) @ freq=1000 abs(emw.Hz) (A/m) @ freq=1000
0                         1                        1.559360035074729E-8     3.108414060108447E-4
1                         1                        5.606288563691247E-5     2.9668599054507645E-4
2                         1                        1.0017642184135883E-4    2.58779775654463E-4
3                         1                        1.2584109167607568E-4    2.0798266233444136E-4
4                         1                        1.3345749683013781E-4    1.5569681041027454E-4
5                         1                        1.27792303634971E-4      1.0968610354989665E-4
6                         1                        1.1459261303112309E-4    7.321319999998376E-5
7                         1                        9.849268550600944E-5     4.631708679542763E-5
8                         1                        8.242588336632518E-5     2.7477214854580146E-5
9                         1                        6.789228780469206E-5     1.4773963766289101E-5
10                        1                        5.5447957515619805E-5    6.470240021222699E-6
11                        1                        4.512453801082085E-5     1.2090720842701071E-6
12                        1                        3.6725752735698654E-5    2.0340439209715887E-6
13                        1                        2.9957278877721644E-5    3.932612967215838E-6
14                        1                        2.4527044024943322E-5    4.961360401218131E-6
15                        1                        2.0174321791907963E-5    5.434537230299517E-6
16                        1                        1.6680112497276075E-5    5.559489973030981E-6
17                        1                        1.3866565135123591E-5    5.471820773602257E-6
18                        1                        1.159184300045293E-5     5.259576824987606E-6
19                        1                        9.744120959089957E-6     4.979440661825483E-6
20                        1                        8.235658173373228E-6     4.667537015093055E-6
21                        1                        6.997705735549713E-6     4.346524841990427E-6
22                        1                        5.976367159634795E-6     4.030289453124949E-6
23                        1                        5.129300192221427E-6     3.7269642686221707E-6
24                        1                        4.423123507950831E-6     3.4410041816851603E-6
25                        1                        3.831403160945085E-6     3.1745175553588727E-6
26                        1                        3.3332160283547796E-6    2.928035562292622E-6
27                        1                        2.9117304243716288E-6    2.701316989649082E-6
28                        1                        2.5535220710151216E-6    2.493486097119039E-6
29                        1                        2.2477526818097437E-6    2.3033989781121926E-6
30                        1                        1.985640923270555E-6     2.129775142271871E-6
31                        1                        1.7600260737429166E-6    1.9712731918234388E-6
32                        1                        1.565132235079747E-6     1.8266837403260417E-6
33                        1                        1.3960928101852108E-6    1.6946807181226152E-6
34                        1                        1.248972872557596E-6     1.5741327060025595E-6
35                        1                        1.120494055867973E-6     1.4639712189362597E-6
36                        1                        1.0079274167946878E-6    1.363215618156885E-6
37                        1                        9.089929750517074E-7     1.2709735499969434E-6
38                        1                        8.217792246218665E-7     1.1864364585574628E-6
39                        1                        7.446756561423293E-7     1.1088740763977697E-6
40                        1                        6.763213588940565E-7     1.0376278639556132E-6
41                        1                        6.155626455699906E-7     9.721050213387976E-7
42                        1                        5.614180993008628E-7     9.117733036389699E-7
43                        1                        5.130495721129371E-7     8.561539164162856E-7
44                        1                        4.6973955063813607E-7    8.048164359419026E-7
45                        1                        4.308711594334791E-7     7.573734692364122E-7
46                        1                        3.959127118052949E-7     7.134770989939744E-7
47                        1                        3.6440488118796485E-7    6.728140534530869E-7
48                        1                        3.359496523073325E-7     6.351020769757397E-7
49                        1                        3.102013943617323E-7     6.000868014939436E-7
50                        1                        2.8686317254725886E-7    5.675335633460134E-7
51                        1                        2.6565850738111103E-7    5.372488090013981E-7
52                        1                        2.463705122463824E-7     5.090315536876322E-7
53                        1                        2.2879271599054405E-7    4.827166369373091E-7
54                        1                        2.127470970943695E-7     4.5814995951334624E-7
55                        1                        1.9807712679168343E-7    4.3519200572052724E-7
56                        1                        1.8464434481377579E-7    4.137161241621286E-7
57                        1                        1.7232627742224069E-7    3.9360702242018566E-7
58                        1                        1.6101427794292114E-7    3.7475975812989274E-7
59                        1                        1.5061180446451348E-7    3.5707865624224233E-7
60                        1                        1.4103281313826394E-7    3.4047653973317857E-7
61                        1                        1.3220068352264706E-7    3.2487370738033825E-7
62                        1                        1.2404693710709218E-7    3.101973179427827E-7
63                        1                        1.1651024526000518E-7    2.9638066977456256E-7
64                        1                        1.0953562172258608E-7    2.833626277051899E-7
65                        1                        1.030736998899821E-7     2.710871224111918E-7
66                        1                        9.708008067436503E-8     2.59502684392613E-7
67                        1                        9.151476989008365E-8     2.485619688326085E-7
68                        1                        8.63417688685694E-8      2.382214738679126E-7
69                        1                        8.152840012089616E-8     2.284411526545104E-7
70                        1                        7.704518296772888E-8     2.191840145326609E-7
71                        1                        7.286541800785186E-8     2.104159099331465E-7
72                        1                        6.896494606694988E-8     2.021053337093479E-7
73                        1                        6.532166663593226E-8     1.9422314910333737E-7
74                        1                        6.191556773664906E-8     1.8674236818938426E-7
75                        1                        5.8729243858934724E-8    1.7963721592506553E-7
76                        1                        5.5743655226072146E-8    1.7288697179255836E-7
77                        1                        5.294605425298647E-8     1.6646770386651805E-7
78                        1                        5.032176499573518E-8     1.60360271063777E-7
79                        1                        4.7858102350239915E-8    1.5454613231821534E-7
80                        1                        4.55434530809833E-8      1.4900804247197748E-7
81                        1                        4.3367164864757145E-8    1.4372994182194084E-7
82                        1                        4.131946698609007E-8     1.38696877819123E-7
83                        1                        3.9391376659275335E-8    1.3389490619114984E-7
84                        1                        3.7574638126399876E-8    1.2931101049747428E-7
85                        1                        3.5861649476378646E-8    1.2493303755009742E-7
86                        1                        3.424540073142972E-8     1.2074962963895612E-7
87                        1                        3.2719438303899524E-8    1.1675017912865017E-7
88                        1                        3.127780786237212E-8     1.1292477882715256E-7
89                        1                        2.991496931758214E-8     1.0926410728188443E-7
90                        1                        2.8625844335756116E-8    1.0575942138959886E-7
91                        1                        2.740571802294531E-8     1.0240256189387915E-7
92                        1                        2.6250222388574652E-8    9.918586471341352E-8
93                        1                        2.515530705012936E-8     9.610213563810335E-8
94                        1                        2.4117216327833563E-8    9.314461443776201E-8
95                        1                        2.3132460071161133E-8    9.030694280402116E-8
96                        1                        2.2197793047914525E-8    8.758313684369776E-8
97                        1                        2.1310214091950064E-8    8.49675861372739E-8
98                        1                        2.0466912843449395E-8    8.245501179915836E-8
99                        1                        1.9665325655287735E-8    8.004041502869682E-8
100                       1                        1.8902975856257787E-8    7.771902106951482E-8
0                         -2                       1.3322594432889327E-7    0.0012733893465853303
1                         -2                       3.463073548356208E-4     0.0011312474213583013
2                         -2                       5.271322767403845E-4     8.08245070056725E-4
3                         -2                       5.312434565600647E-4     4.840295638722187E-4
4                         -2                       4.4357043915816633E-4    2.5135819260454584E-4
5                         -2                       3.376116101828717E-4     1.1253513470784546E-4
6                         -2                       2.4643923828026996E-4    3.833404226228968E-5
7                         -2                       1.7737886231415244E-4    1.6957821180801563E-6
8                         -2                       1.2778977441302368E-4    1.490711963062585E-5
9                         -2                       9.286675955717311E-5     2.1326307945715645E-5
10                        -2                       6.83297090889874E-5      2.2776415679941203E-5
11                        -2                       5.0995321825886404E-5    2.1881497746831642E-5
12                        -2                       3.857916683732212E-5     2.0150421547385725E-5
13                        -2                       2.960325972148306E-5     1.806914316212681E-5
14                        -2                       2.301728537938663E-5     1.6006670808397272E-5
15                        -2                       1.8117061071366005E-5    1.4092498990953666E-5
16                        -2                       1.4427983573356185E-5    1.2384610505875151E-5
17                        -2                       1.1614384903963044E-5    1.0885789629059886E-5
18                        -2                       9.442968138178507E-6     9.582234372627645E-6
19                        -2                       7.74716276826181E-6      8.454417032512773E-6
20                        -2                       6.411122172943402E-6     7.480429726576333E-6
21                        -2                       5.34710559893417E-6      6.6381060393540306E-6
22                        -2                       4.492846735728223E-6     5.90992661402738E-6
23                        -2                       3.800264044886503E-6     5.276812660553226E-6
24                        -2                       3.2350431268833134E-6    4.727609469903637E-6
25                        -2                       2.7706408686624943E-6    4.248954788439442E-6
26                        -2                       2.3854243130772956E-6    3.829623670424326E-6
27                        -2                       2.0645072275020703E-6    3.4618830737480183E-6
28                        -2                       1.7954297778759624E-6    3.1383096878527684E-6
29                        -2                       1.568626357208196E-6     2.8529819210010342E-6
30                        -2                       1.3759862402345802E-6    2.5999367256177767E-6
31                        -2                       1.2120516552534713E-6    2.3752399883434426E-6
32                        -2                       1.0716692779258226E-6    2.175287385493508E-6
33                        -2                       9.509506744172383E-7     1.9967121442291685E-6
34                        -2                       8.466781541004012E-7     1.836763918509279E-6
35                        -2                       7.562104020992011E-7     1.6931535118539934E-6
36                        -2                       6.774808789298396E-7     1.563895742701307E-6
37                        -2                       6.087032923937825E-7     1.4472120616046108E-6
38                        -2                       5.483823463702298E-7     1.3417461177028625E-6
39                        -2                       4.95325295955278E-7      1.2461604852370586E-6
40                        -2                       4.485059485027278E-7     1.1592672923936789E-6
41                        -2                       4.070802696347898E-7     1.0802128280647768E-6
42                        -2                       3.7030056218850496E-7    1.0081083852174085E-6
43                        -2                       3.375728918304576E-7     9.421689600750629E-7
44                        -2                       3.0837926506113417E-7    8.818509205302615E-7
45                        -2                       2.8226317574214996E-7    8.264973239718053E-7
46                        -2                       2.588508357278549E-7     7.756610284775546E-7
47                        -2                       2.3781027713838335E-7    7.288691233710408E-7
48                        -2                       2.1883968244712617E-7    6.857205205715953E-7
49                        -2                       2.0173244898374876E-7    6.458800438154549E-7
50                        -2                       1.862631640862716E-7     6.090595228833417E-7
51                        -2                       1.7224052696726193E-7    5.749691212538557E-7
52                        -2                       1.595100479944569E-7     5.433422463840233E-7
53                        -2                       1.4793568770319499E-7    5.139969339885093E-7
54                        -2                       1.3738892755910875E-7    4.867044985059182E-7
55                        -2                       1.2776608055768584E-7    4.6130860298821937E-7
56                        -2                       1.1896887430697298E-7    4.376277588464532E-7
57                        -2                       1.1090767064646565E-7    4.155441587303065E-7
58                        -2                       1.0352139679670842E-7    3.9490422510288247E-7
59                        -2                       9.673856564850826E-8     3.756087162134004E-7
60                        -2                       9.050477765368978E-8     3.5753737370431616E-7
61                        -2                       8.476204643529737E-8     3.4061258232528175E-7
62                        -2                       7.946414180351317E-8     3.2472937239795E-7
63                        -2                       7.457743334588474E-8     3.0981863807102793E-7
64                        -2                       7.006024810738512E-8     2.958000230408237E-7
65                        -2                       6.587635435215896E-8     2.826119243923141E-7
66                        -2                       6.200253205961247E-8     2.7018943176976E-7
67                        -2                       5.84074054463221E-8      2.5849584906681573E-7
68                        -2                       5.506966804168453E-8     2.474543876292683E-7
69                        -2                       5.196738943624609E-8     2.3703696765482436E-7
70                        -2                       4.908021618513647E-8     2.2719045810257903E-7
71                        -2                       4.6391101665029036E-8    2.1788168922928833E-7
72                        -2                       4.388189227151989E-8     2.0907403782750816E-7
73                        -2                       4.154175132996617E-8     2.0073083229132454E-7
74                        -2                       3.935663436846266E-8     1.9282871031163456E-7
75                        -2                       3.730931823265629E-8     1.8533483727500225E-7
76                        -2                       3.5397443753116225E-8    1.7822508958293432E-7
77                        -2                       3.3604164072815214E-8    1.7147202432591869E-7
78                        -2                       3.1924528294062024E-8    1.6505591250068037E-7
79                        -2                       3.034806825336266E-8     1.589544273736236E-7
80                        -2                       2.8868069166383767E-8    1.5315218587762053E-7
81                        -2                       2.7477471428901105E-8    1.4762568049698888E-7
82                        -2                       2.6169317226697085E-8    1.4236453567693962E-7
83                        -2                       2.4938182978081934E-8    1.3734976034062345E-7
84                        -2                       2.377903053280442E-8     1.3256690870758163E-7
85                        -2                       2.2686953564689147E-8    1.280044325244552E-7
86                        -2                       2.1657110534470565E-8    1.2364771617186534E-7
87                        -2                       2.0684496933120464E-8    1.1948756589572686E-7
88                        -2                       1.9766998078802926E-8    1.1551183023854073E-7
89                        -2                       1.889972987895773E-8     1.1171058528904302E-7
90                        -2                       1.807928869072046E-8     1.0807420285181152E-7
91                        -2                       1.7303807120922866E-8    1.0459409128340727E-7
92                        -2                       1.6569464646902425E-8    1.0126266417838627E-7
93                        -2                       1.5873818552394994E-8    9.807037212093231E-8
94                        -2                       1.5214518329534703E-8    9.50111613617654E-8
95                        -2                       1.4589565077491488E-8    9.207849448010782E-8
96                        -2                       1.3996408901475826E-8    8.926496966146127E-8
97                        -2                       1.3433137510391012E-8    8.656518693969138E-8
98                        -2                       1.2898648608166391E-8    8.397397638640881E-8
99                        -2                       1.239061328856701E-8     8.148470108215704E-8
100                       -2                       1.1907564560661201E-8    7.909319314815883E-8
0                         -7                       299.7700276964576        159048.3878906577
1                         -7                       8.030988239064058E-7     0.07958721642293037
2                         -7                       3.8162014732383367E-7    0.009947271372906191
3                         -7                       8.333142238860755E-8     0.0029472687973707986
4                         -7                       8.896644051933273E-8     0.0012433642388340888
5                         -7                       8.781618647684249E-8     6.366306729701986E-4
6                         -7                       8.39027829402448E-8      3.6841678378284623E-4
7                         -7                       7.80719378890857E-8      2.3199936009127224E-4
8                         -7                       7.193456594620419E-8     1.5542366510186466E-4
9                         -7                       6.559827482152021E-8     1.091600920334684E-4
10                        -7                       5.976051742882003E-8     7.957978282362155E-5
11                        -7                       5.4177701883807536E-8    5.979790273502969E-5
12                        -7                       5.313727128572402E-8     4.602662958217008E-5
13                        -7                       4.5421689638935406E-8    3.621475534473287E-5
14                        -7                       4.049135440382622E-8     2.89993912240082E-5
15                        -7                       3.67461978464575E-8      2.3580259800453175E-5
16                        -7                       3.34087276423918E-8      1.942933451535854E-5
17                        -7                       3.084377323926026E-8     1.6194859432528705E-5
18                        -7                       2.7822673886047743E-8    1.3643887718543744E-5
19                        -7                       2.5450342356443375E-8    1.1603210930796915E-5
20                        -7                       2.3328619707110576E-8    9.948321451380268E-6
21                        -7                       2.1419977862531458E-8    8.593808952109821E-6
22                        -7                       1.9702812020322955E-8    7.474306350602839E-6
23                        -7                       1.8214681793899833E-8    6.539465620412325E-6
24                        -7                       1.675444970466622E-8     5.757318567376752E-6
25                        -7                       1.548784264703233E-8     5.093730151557182E-6
26                        -7                       1.4338935953344611E-8    4.528371427679833E-6
27                        -7                       1.3294880049063382E-8    4.043674306639729E-6
28                        -7                       1.2344761183018927E-8    3.625707016722076E-6
29                        -7                       1.1477393360554378E-8    3.263503138712784E-6
30                        -7                       1.0684883686821006E-8    2.9479564980943683E-6
31                        -7                       9.959326542344697E-9     2.6718213542890823E-6
32                        -7                       9.29371684700615E-9      2.429139913493063E-6
33                        -7                       8.682396502966561E-9     2.214978427608982E-6
34                        -7                       8.120130793397125E-9     2.0252527223053013E-6
35                        -7                       7.601607640665845E-9     1.856610274516697E-6
36                        -7                       7.122800653191149E-9     1.7062039982287188E-6
37                        -7                       6.680291908221153E-9     1.5716076622954815E-6
38                        -7                       6.270521219143165E-9     1.450811655734446E-6
39                        -7                       5.8906735189378325E-9    1.342084442161246E-6
40                        -7                       5.53818648800488E-9      1.243948858561248E-6
41                        -7                       5.210339331932895E-9     1.1551632130288847E-6
42                        -7                       4.905086195215728E-9     1.0746416369729015E-6
43                        -7                       4.620701560100468E-9     1.0014293790913142E-6
44                        -7                       4.3553256164984825E-9    9.347233097965808E-7
45                        -7                       4.107473933817933E-9     8.738137569360568E-7
46                        -7                       3.875699679860056E-9     8.180858306135042E-7
47                        -7                       3.6588174690466016E-9    7.669947677602896E-7
48                        -7                       3.455421297962238E-9     7.200817491422644E-7
49                        -7                       3.2646960432396176E-9    6.769163834023955E-7
50                        -7                       3.0856170628021546E-9    6.37136035195498E-7
51                        -7                       2.9173262519896497E-9    6.004137686185354E-7
52                        -7                       2.7590248474778814E-9    5.664620937368437E-7
53                        -7                       2.6100401053187265E-9    5.350221896934467E-7
54                        -7                       2.4695569111907298E-9    5.058720805294557E-7
55                        -7                       2.337130043214864E-9     4.788018361954101E-7
56                        -7                       2.212151106808777E-9     4.536305432828921E-7
57                        -7                       2.0941190785265165E-9    4.301950156838561E-7
58                        -7                       1.9825522953016603E-9    4.0834742696327833E-7
59                        -7                       1.8770566101627446E-9    3.8795461618582144E-7
60                        -7                       1.7771746016256725E-9    3.688996164969897E-7
61                        -7                       1.682535520054163E-9     3.5107481516978524E-7
62                        -7                       1.592878887517756E-9     3.343804585502494E-7
63                        -7                       1.5078703633697928E-9    3.1872945900659806E-7
64                        -7                       1.4271901754246722E-9    3.0404095292453104E-7
65                        -7                       1.350601180952341E-9     2.90241541497133E-7
66                        -7                       1.2778241617645545E-9    2.7726645129827125E-7
67                        -7                       1.208615357996391E-9     2.650552141175634E-7
68                        -7                       1.1428253013440056E-9    2.535510110318154E-7
69                        -7                       1.0802433948564071E-9    2.4270419567819773E-7
70                        -7                       1.0206472940160412E-9    2.324680783451704E-7
71                        -7                       9.638839695019919E-10    2.2280041017372E-7
72                        -7                       9.09797823328296E-10     2.1366170989177243E-7
73                        -7                       8.582012284687942E-10    2.0501789961675502E-7
74                        -7                       8.090163800468929E-10    1.9683451019926037E-7
75                        -7                       7.621080879648858E-10    1.890817942216677E-7
76                        -7                       7.173106936901563E-10    1.8173157136605244E-7
77                        -7                       6.745323798450003E-10    1.7475815490623604E-7
78                        -7                       6.336665468005599E-10    1.6813740432657115E-7
79                        -7                       5.945893876571741E-10    1.618481125779799E-7
80                        -7                       5.572562732380696E-10    1.5586908863099802E-7
81                        -7                       5.215558904867779E-10    1.5018160537211982E-7
82                        -7                       4.874350255308893E-10    1.4476817539321587E-7
83                        -7                       4.5475983279835564E-10   1.3961236545007632E-7
84                        -7                       4.2348002480821045E-10   1.346988681052348E-7
85                        -7                       3.93540696077263E-10     1.3001400588569188E-7
86                        -7                       3.6484886122183647E-10   1.255447083383655E-7
87                        -7                       3.3739509162168696E-10   1.212782772045601E-7
88                        -7                       3.111328089855487E-10    1.1720356849775125E-7
89                        -7                       2.85945197478236E-10     1.1330983467181678E-7
90                        -7                       2.6180675257350783E-10   1.095870385397038E-7
91                        -7                       2.3869767088817626E-10   1.0602615278179988E-7
92                        -7                       2.1654091546613065E-10   1.026185156842493E-7
93                        -7                       1.9535552918127832E-10   9.935560515005864E-8
94                        -7                       1.7514331382526217E-10   9.623017222759566E-8
95                        -7                       1.5580274197585076E-10   9.323489402939151E-8
96                        -7                       1.3724451868692417E-10   9.036289886167864E-8
97                        -7                       1.196866975332923E-10    8.760803620317086E-8
98                        -7                       1.030620499040328E-10    8.496427694395844E-8
99                        -7                       8.730439479506578E-11    8.242669572923365E-8
100                       -7                       7.281244293187426E-11    7.998938628135833E-8
