% Model:              VMD_layered_2016_10M_Hermes_soil2_output.mph
% Version:            COMSOL 4.4.0.150
% Date:               May 31 2016, 11:44
% Dimension:          2
% Nodes:              303
% Expressions:        2
% Description:        Magnetic field, r component, Magnetic field, z component
% Length unit:        m
% r                       z                        abs(emw.Hr) (A/m) @ freq=1e7 abs(emw.Hz) (A/m) @ freq=1e7
0                         1                        3.3513825806460495E-11   1.0318884467020606E-4
1                         1                        2.5968449818962883E-5    9.617308383543838E-5
2                         1                        4.433882100702638E-5     7.842790700741493E-5
3                         1                        5.166769043412955E-5     5.7650820864885707E-5
4                         1                        4.9406584001162595E-5    4.132875997854648E-5
5                         1                        4.1580710156469625E-5    3.2600877002394534E-5
6                         1                        3.215480406483316E-5     2.8923294690553295E-5
7                         1                        2.372507981332776E-5     2.6420251991459486E-5
8                         1                        1.7409645016437325E-5    2.3505231345070575E-5
9                         1                        1.327676742024954E-5     2.0160152854663446E-5
10                        1                        1.0793638447629869E-5    1.6756410880201248E-5
11                        1                        9.271666261638064E-6     1.3599000049185888E-5
12                        1                        8.19597019196658E-6      1.0844072075182941E-5
13                        1                        7.3008222934469114E-6    8.534734595269373E-6
14                        1                        6.486267562017778E-6     6.64786103961893E-6
15                        1                        5.726572092646656E-6     5.131120105083405E-6
16                        1                        5.0212967545310655E-6    3.923942811936938E-6
17                        1                        4.374368323587446E-6     2.9689341776795325E-6
18                        1                        3.788418842103098E-6     2.2166980006054187E-6
19                        1                        3.262744328369816E-6     1.6265436634796734E-6
20                        1                        2.7952709995513576E-6    1.1660414872383777E-6
21                        1                        2.382315723927317E-6     8.104182271953703E-7
22                        1                        2.019962149834359E-6     5.417589092710982E-7
23                        1                        1.7040327407348852E-6    3.5016844544713153E-7
24                        1                        1.4306742379692625E-6    2.368987610824176E-7
25                        1                        1.1963184299326075E-6    2.0566053589687659E-7
26                        1                        9.977061645622773E-7     2.2725742596872867E-7
27                        1                        8.321305939130972E-7     2.6088210287611534E-7
28                        1                        6.97124891690189E-7      2.8880947902236397E-7
29                        1                        5.903982475795473E-7     3.069487617742326E-7
30                        1                        5.095291241097291E-7     3.1550851218714034E-7
31                        1                        4.5153651430203155E-7    3.1589060863995747E-7
32                        1                        4.125813508407582E-7     3.097285496935945E-7
33                        1                        3.881349095623149E-7     2.9854014694797114E-7
34                        1                        3.7361700506487237E-7    2.8367532923883127E-7
35                        1                        3.650156309495065E-7     2.6628292286549253E-7
36                        1                        3.593246763888868E-7     2.47327861948681E-7
37                        1                        3.544752636124796E-7     2.276084620242431E-7
38                        1                        3.492771367545313E-7     2.0779061085462522E-7
39                        1                        3.430678655613423E-7     1.8841979802842687E-7
40                        1                        3.355848305789372E-7     1.6993127608184915E-7
41                        1                        3.267960207934089E-7     1.526772937336621E-7
42                        1                        3.1682895908881966E-7    1.3693120242032069E-7
43                        1                        3.058706180389493E-7     1.2289090594078336E-7
44                        1                        2.9416646135357614E-7    1.1069053441975304E-7
45                        1                        2.819537100262295E-7     1.0038938683530171E-7
46                        1                        2.694801558001644E-7     9.196353370165721E-8
47                        1                        2.5697674428411837E-7    8.530828076629434E-8
48                        1                        2.44647341505801E-7      8.023562532651887E-8
49                        1                        2.3267005159095594E-7    7.649228972867786E-8
50                        1                        2.211872479501341E-7     7.37897168157944E-8
51                        1                        2.1030782483610308E-7    7.183927244291574E-8
52                        1                        2.001130272023568E-7     7.038078080642466E-8
53                        1                        1.9064678940317167E-7    6.919932493506297E-8
54                        1                        1.8192181107934725E-7    6.813247652826836E-8
55                        1                        1.7392529561266648E-7    6.706631131113637E-8
56                        1                        1.6662445560257633E-7    6.59289878230282E-8
57                        1                        1.5997083948680796E-7    6.468121579925999E-8
58                        1                        1.5390054462339357E-7    6.330886408459514E-8
59                        1                        1.4835001009621501E-7    6.181487401849877E-8
60                        1                        1.4325117321046676E-7    6.021301321464661E-8
61                        1                        1.385398905084402E-7     5.852369912814541E-8
62                        1                        1.3415640877146096E-7    5.677085961773415E-8
63                        1                        1.3005163587127824E-7    5.497928996926325E-8
64                        1                        1.2618213398781177E-7    5.317261225906974E-8
65                        1                        1.225113695658086E-7     5.1373163247282886E-8
66                        1                        1.1901342441383179E-7    4.960088383411397E-8
67                        1                        1.1566521656101185E-7    4.787335813138706E-8
68                        1                        1.1244946604680016E-7    4.6204935719644365E-8
69                        1                        1.0935155693179747E-7    4.4607629942160335E-8
70                        1                        1.0635973399702422E-7    4.3089943817176765E-8
71                        1                        1.034645173531301E-7     4.165777602519838E-8
72                        1                        1.0065702930913073E-7    4.031378595863911E-8
73                        1                        9.793226400156371E-8     3.905851043619396E-8
74                        1                        9.528386464009403E-8     3.788908141793108E-8
75                        1                        9.271028475403463E-8     3.680172440691386E-8
76                        1                        9.020895872439077E-8     3.5789893456087154E-8
77                        1                        8.778243006701457E-8     3.484588816695137E-8
78                        1                        8.543189521215884E-8     3.3961960701589956E-8
79                        1                        8.316003714913397E-8     3.3129314525078595E-8
80                        1                        8.097074456743457E-8     3.233997501149593E-8
81                        1                        7.886720510592509E-8     3.1585864770269195E-8
82                        1                        7.685017422862127E-8     3.086050643593001E-8
83                        1                        7.492160271848203E-8     3.015870445463274E-8
84                        1                        7.307787588279767E-8     2.9475937538576637E-8
85                        1                        7.131766828097847E-8     2.8810014597605897E-8
86                        1                        6.963462834885257E-8     2.8159132897282555E-8
87                        1                        6.802280696677873E-8     2.7523015408821305E-8
88                        1                        6.647582074277694E-8     2.690179350615255E-8
89                        1                        6.498518039077276E-8     2.6296413547438994E-8
90                        1                        6.354495987156693E-8     2.5707614106579228E-8
91                        1                        6.214816008402869E-8     2.513649340298693E-8
92                        1                        6.079255196026581E-8     2.458283036207249E-8
93                        1                        5.9473571468321095E-8    2.4047276121307362E-8
94                        1                        5.819107616559307E-8     2.352928689183182E-8
95                        1                        5.694462205952629E-8     2.3028041275549426E-8
96                        1                        5.5734427967965544E-8    2.2542403842861926E-8
97                        1                        5.456276309356898E-8     2.2071298402044654E-8
98                        1                        5.342984230969738E-8     2.1613682567799625E-8
99                        1                        5.233671152335329E-8     2.1168377864619418E-8
100                       1                        5.128252721034703E-8     2.073482711334523E-8
0                         -2                       6.594565206239126E-10    7.307839989692654E-4
1                         -2                       3.813777775799817E-4     6.231344459517258E-4
2                         -2                       5.793951710247339E-4     3.992839137509569E-4
3                         -2                       5.819915735013398E-4     2.2896588818913436E-4
4                         -2                       4.83843989251308E-4      1.6974794110513096E-4
5                         -2                       3.665679324187572E-4     1.502629341024855E-4
6                         -2                       2.66478606176956E-4      1.2695075241929323E-4
7                         -2                       1.9120713115357423E-4    1.0040454899258182E-4
8                         -2                       1.3746150277744356E-4    7.618315780508185E-5
9                         -2                       9.974029212601473E-5     5.665028799113761E-5
10                        -2                       7.326011093467632E-5     4.18948921291344E-5
11                        -2                       5.450439775580725E-5     3.111278909654912E-5
12                        -2                       4.10488406532761E-5      2.3343677317120606E-5
13                        -2                       3.126046690910785E-5     1.7753885935886194E-5
14                        -2                       2.4043599344323672E-5    1.3703438611544255E-5
15                        -2                       1.8657846827022084E-5    1.073087680170202E-5
16                        -2                       1.459704391460392E-5     8.514071199489343E-6
17                        -2                       1.1509224287651014E-5    6.831938225361815E-6
18                        -2                       9.145527409297665E-6     5.533700951778757E-6
19                        -2                       7.327171292214481E-6     4.515917324657743E-6
20                        -2                       5.923121775082442E-6     3.7070006690506005E-6
21                        -2                       4.835825991692964E-6     3.0565563477534284E-6
22                        -2                       3.991368242179938E-6     2.528577331422044E-6
23                        -2                       3.3331495097930564E-6    2.096722452815105E-6
24                        -2                       2.8171056544970924E-6    1.7413998788178018E-6
25                        -2                       2.4089282918429555E-6    1.4477769338856619E-6
26                        -2                       2.0819608648610234E-6    1.2044354379494136E-6
27                        -2                       1.815681941111728E-6     1.0024366641636181E-6
28                        -2                       1.5945662470562026E-6    8.346845528877175E-7
29                        -2                       1.4070850966372093E-6    6.955118309948908E-7
30                        -2                       1.2449372151531808E-6    5.802920605830005E-7
31                        -2                       1.1021889090108424E-6    4.852370562427627E-7
32                        -2                       9.747095560607298E-7     4.071824775850183E-7
33                        -2                       8.596469412547542E-7     3.434687063463623E-7
34                        -2                       7.550819113850416E-7     2.9179317659357785E-7
35                        -2                       6.596766760236701E-7     2.5013735655615636E-7
36                        -2                       5.724957863435369E-7     2.1671280740507787E-7
37                        -2                       4.928763415538663E-7     1.8990991295513903E-7
38                        -2                       4.203004604670308E-7     1.6830618216635796E-7
39                        -2                       3.543487232733865E-7     1.5066819988566627E-7
40                        -2                       2.946543840424045E-7     1.35974439153061E-7
41                        -2                       2.4088673923300353E-7    1.2341021907462711E-7
42                        -2                       1.9272865308131E-7       1.123582308693086E-7
43                        -2                       1.498720559312268E-7     1.0237666073618782E-7
44                        -2                       1.1201453861338299E-7    9.316205504103734E-8
45                        -2                       7.885836862960053E-8     8.451865840312475E-8
46                        -2                       5.012281434598573E-8     7.632735890577996E-8
47                        -2                       2.5616238297552142E-8    6.852432551256972E-8
48                        -2                       6.652250857738321E-9     6.108065177387259E-8
49                        -2                       1.457673678248973E-8     5.398952728562371E-8
50                        -2                       2.8566799551552745E-8    4.725776894685758E-8
51                        -2                       4.0104428771981775E-8    4.089906416489653E-8
52                        -2                       4.920864313921796E-8     3.4929174753355316E-8
53                        -2                       5.61157387510038E-8      2.936312806998098E-8
54                        -2                       6.107980209598134E-8     2.4214257643608413E-8
55                        -2                       6.434983620036182E-8     1.949201619513327E-8
56                        -2                       6.61589040858228E-8      1.520343456703063E-8
57                        -2                       6.672474445393343E-8     1.1354999033151428E-8
58                        -2                       6.62488157695768E-8      7.96119555832816E-9
59                        -2                       6.49190324694168E-8      5.072863275387466E-9
60                        -2                       6.290766889613861E-8     2.9195138727961414E-9
61                        -2                       6.037336538757636E-8     2.350656222170396E-9
62                        -2                       5.746243596022944E-8     3.4214545969487584E-9
63                        -2                       5.43075622109789E-8      4.808221064953364E-9
64                        -2                       5.1028737280564065E-8    6.0646986962456025E-9
65                        -2                       4.7732688901105864E-8    7.108419859447381E-9
66                        -2                       4.4512819514999726E-8    7.931531957750042E-9
67                        -2                       4.1448884990716594E-8    8.545439123228536E-9
68                        -2                       3.8606265574083155E-8    8.968011084689725E-9
69                        -2                       3.603499385840085E-8     9.22031832274758E-9
70                        -2                       3.376915308029486E-8     9.32390239095446E-9
71                        -2                       3.1825886984057176E-8    9.300501612699123E-9
72                        -2                       3.020491245428519E-8     9.171059881224738E-9
73                        -2                       2.888893255449388E-8     8.956096317612902E-9
74                        -2                       2.7846955840150503E-8    8.674613501878503E-9
75                        -2                       2.7037476716912863E-8    8.344313062290663E-9
76                        -2                       2.64135240790209E-8      7.98136049619401E-9
77                        -2                       2.5927748506932442E-8    7.600305789818148E-9
78                        -2                       2.5536373657338848E-8    7.21411756647746E-9
79                        -2                       2.520172374427613E-8     6.833865411791803E-9
80                        -2                       2.4893492890612317E-8    6.4692459421510615E-9
81                        -2                       2.458902895616491E-8     6.1279745219005585E-9
82                        -2                       2.4272644743135887E-8    5.816051110564094E-9
83                        -2                       2.393442825910342E-8     5.537309907120357E-9
84                        -2                       2.356912333195134E-8     5.293914642573743E-9
85                        -2                       2.3175119092692022E-8    5.0859711968476055E-9
86                        -2                       2.2753271750582664E-8    4.911628534375027E-9
87                        -2                       2.2306239621306354E-8    4.767904595441662E-9
88                        -2                       2.1837894854845942E-8    4.650577141165803E-9
89                        -2                       2.135295756692963E-8     4.554980358244363E-9
90                        -2                       2.0856563930568467E-8    4.476086263658008E-9
91                        -2                       2.0354064068660248E-8    4.409405737786434E-9
92                        -2                       1.9850961121765705E-8    4.3507923601790004E-9
93                        -2                       1.935253074879141E-8     4.296545367878961E-9
94                        -2                       1.8863673121763406E-8    4.243934037885633E-9
95                        -2                       1.838878391103887E-8     4.1906971519428375E-9
96                        -2                       1.793159589217704E-8     4.1353022678349296E-9
97                        -2                       1.7494936925750685E-8    4.076588859380428E-9
98                        -2                       1.708061710132139E-8     4.0141613103957716E-9
99                        -2                       1.668957146997252E-8     3.947900441143618E-9
100                       -2                       1.6321632082708533E-8    3.878072137269754E-9
0                         -7                       2591.986347339267        160124.4455424562
1                         -7                       2.805618945935546E-4     0.07652610931496205
2                         -7                       4.462679731376731E-4     0.010629546496134465
3                         -7                       5.169306893562755E-4     0.0043452601423900105
4                         -7                       5.081063480915376E-4     0.0025419385997359667
5                         -7                       4.5768707600103264E-4    0.0016800864964761103
6                         -7                       3.9341931030719806E-4    0.0011729327006175874
7                         -7                       3.2927406537049423E-4    8.466897552171563E-4
8                         -7                       2.71586544470975E-4      6.261629869040193E-4
9                         -7                       2.2236507344296983E-4    4.7205731178629075E-4
10                        -7                       1.815552154474176E-4     3.6160925605578897E-4
11                        -7                       1.4822809839877928E-4    2.808182824078554E-4
12                        -7                       1.2120410167213225E-4    2.20640434433517E-4
13                        -7                       9.937126609579836E-5     1.7513007598419546E-4
14                        -7                       8.173235472745349E-5     1.402435085052003E-4
15                        -7                       6.745547425828437E-5     1.1318013809518332E-4
16                        -7                       5.586962254035808E-5     9.197080537981585E-5
17                        -7                       4.643490860096142E-5     7.518837292638159E-5
18                        -7                       3.873105211629088E-5     6.18091088499871E-5
19                        -7                       3.2403026867719354E-5    5.105828335520567E-5
20                        -7                       2.7196622544529723E-5    4.236873468548832E-5
21                        -7                       2.289329375808938E-5     3.529945807008974E-5
22                        -7                       1.9322921043124435E-5    2.9520319477626962E-5
23                        -7                       1.6351247351387517E-5    2.4772567577164402E-5
24                        -7                       1.3869584303913729E-5    2.0854594024357756E-5
25                        -7                       1.179041045530754E-5     1.7608330334249695E-5
26                        -7                       1.0044426498999738E-5    1.4908454549971227E-5
27                        -7                       8.572924236276887E-6     1.2655572227762197E-5
28                        -7                       7.3306854722658944E-6    1.0769073826421205E-5
29                        -7                       6.279038821055328E-6     9.184745464256002E-6
30                        -7                       5.386746753908649E-6     7.850728676128325E-6
31                        -7                       4.628180913765383E-6     6.72449537668287E-6
32                        -7                       3.98278134842975E-6      5.7708175829269415E-6
33                        -7                       3.4315260555251798E-6    4.961643748628471E-6
34                        -7                       2.9610585581357833E-6    4.273524170443793E-6
35                        -7                       2.5586337438696124E-6    3.687064616843202E-6
36                        -7                       2.213757971171119E-6     3.1861332398924825E-6
37                        -7                       1.918115291961157E-6     2.7573897146756572E-6
38                        -7                       1.6644328381975177E-6    2.389653138356507E-6
39                        -7                       1.4462626626902115E-6    2.0737207628999508E-6
40                        -7                       1.258538728074777E-6     1.801747147779048E-6
41                        -7                       1.096894295113465E-6     1.5671358268599832E-6
42                        -7                       9.57434779130038E-7      1.3645351499154325E-6
43                        -7                       8.370737614226297E-7     1.1891921978392626E-6
44                        -7                       7.327508467456174E-7     1.0372154760988619E-6
45                        -7                       6.424376442585417E-7     9.053429254452061E-7
46                        -7                       5.640242714745513E-7     7.907804567194619E-7
47                        -7                       4.957134752332027E-7     6.9110393200641E-7
48                        -7                       4.3616683391922675E-7    6.043204484724358E-7
49                        -7                       3.8407500137091833E-7    5.287109955004267E-7
50                        -7                       3.384256003113428E-7     4.6278054816326665E-7
51                        -7                       2.9827351329214777E-7    4.0527321826162444E-7
52                        -7                       2.6292919506749326E-7    3.5509567865370735E-7
53                        -7                       2.3171273845996373E-7    3.1132599771461153E-7
54                        -7                       2.0411999091777414E-7    2.7313630976410697E-7
55                        -7                       1.796589670991649E-7     2.398167990391602E-7
56                        -7                       1.5798152703897317E-7    2.107668109039227E-7
57                        -7                       1.3876428502940746E-7    1.854328248156006E-7
58                        -7                       1.2170540951906406E-7    1.6335047473415153E-7
59                        -7                       1.0660294051931107E-7    1.4408771317292167E-7
60                        -7                       9.324042550723902E-8     1.2729405915592323E-7
61                        -7                       8.145132416520896E-8     1.1263530335858928E-7
62                        -7                       7.108765144306104E-8     9.982659721422213E-8
63                        -7                       6.201603037797578E-8     8.86175648892871E-8
64                        -7                       5.4121983697755524E-8    7.879030667569098E-8
65                        -7                       4.728193915861734E-8     7.014038657656291E-8
66                        -7                       4.140162574029563E-8     6.251087711633448E-8
67                        -7                       3.639038733510558E-8     5.575370016691389E-8
68                        -7                       3.214728478035481E-8     4.974385071956671E-8
69                        -7                       2.857704044266574E-8     4.4381403517101264E-8
70                        -7                       2.559182045277779E-8     3.957232818297441E-8
71                        -7                       2.3094285667534996E-8    3.5249302270228925E-8
72                        -7                       2.1000440937933837E-8    3.135088357816716E-8
73                        -7                       1.9222708894554446E-8    2.7826300889228843E-8
74                        -7                       1.7691214790427252E-8    2.4637536358233186E-8
75                        -7                       1.6341832636728247E-8    2.175041819989111E-8
76                        -7                       1.5120762013067982E-8    1.9138398422503376E-8
77                        -7                       1.399053635055914E-8     1.677971264238979E-8
78                        -7                       1.292189831589715E-8     1.465679961728304E-8
79                        -7                       1.1895696041796742E-8    1.2753058387754697E-8
80                        -7                       1.0900624416101564E-8    1.1057569764772812E-8
81                        -7                       9.930251249332498E-9     9.559880861749236E-9
82                        -7                       8.982824000467419E-9     8.24975398169625E-9
83                        -7                       8.059329208661925E-9     7.12074459763644E-9
84                        -7                       7.162593668341538E-9     6.1642326533626624E-9
85                        -7                       6.2958093988165165E-9    5.371823235277194E-9
86                        -7                       5.462941864781135E-9     4.732523373711039E-9
87                        -7                       4.6681085514167535E-9    4.231664691483207E-9
88                        -7                       3.914672709658857E-9     3.850946510911674E-9
89                        -7                       3.2058508383287722E-9    3.567456935702491E-9
90                        -7                       2.5445957561193167E-9    3.3567117759273243E-9
91                        -7                       1.9333429880019863E-9    3.19580996590555E-9
92                        -7                       1.373967308141649E-9     3.06448412586029E-9
93                        -7                       8.683491169577286E-10    2.9471454559445524E-9
94                        -7                       4.2194376783674784E-10   2.832374581701185E-9
95                        -7                       1.2846068072076392E-10   2.713276556979354E-9
96                        -7                       3.8009389434407365E-10   2.5855704450442906E-9
97                        -7                       6.75851590866671E-10     2.4474800385701514E-9
98                        -7                       9.316339231733464E-10    2.2989947862922545E-9
99                        -7                       1.1452247125320112E-9    2.140987818184932E-9
100                       -7                       1.318604454027109E-9     1.9754275160657456E-9
