% Model:              HMD_med2_10MHz_100_output.mph
% Version:            COMSOL 4.4.0.195
% Date:               Jul 23 2014, 09:17
% Dimension:          3
% Nodes:              303
% Expressions:        1
% Description:        
% Length unit:        m
% x                       y                        z                        abs(emw.Hx) (A/m) @ freq=1e7
0                         0                        1                        1.9713626401890284E-7
0.7071067812              0.7071067812             1                        1.3725606697454239E-6
1.4142135624              1.4142135624             1                        1.4032620075369778E-5
2.1213203436              2.1213203436             1                        3.115411519560777E-5
2.8284271247              2.8284271247             1                        4.0809724548675406E-5
3.5355339059              3.5355339059             1                        4.693668167664834E-5
4.2426406871              4.2426406871             1                        5.151827364339691E-5
4.9497474683              4.9497474683             1                        5.068436396665582E-5
5.6568542495              5.6568542495             1                        4.699655069977243E-5
6.3639610307              6.3639610307             1                        4.230179765802301E-5
7.0710678119              7.0710678119             1                        3.801941601227286E-5
7.7781745931              7.7781745931             1                        3.415014114280953E-5
8.4852813742              8.4852813742             1                        3.035574060173373E-5
9.1923881554              9.1923881554             1                        2.772048176204617E-5
9.8994949366              9.8994949366             1                        2.500347810926169E-5
10.6066017178             10.6066017178            1                        2.2861881216531966E-5
11.313708499              11.313708499             1                        2.082427475508273E-5
12.0208152802             12.0208152802            1                        1.909961203369137E-5
12.7279220614             12.7279220614            1                        1.760194878202695E-5
13.4350288425             13.4350288425            1                        1.6180860046663286E-5
14.1421356237             14.1421356237            1                        1.4967831378500785E-5
14.8492424049             14.8492424049            1                        1.3810022949035113E-5
15.5563491861             15.5563491861            1                        1.275862395419747E-5
16.2634559673             16.2634559673            1                        1.1898581537877088E-5
16.9705627485             16.9705627485            1                        1.107890117834713E-5
17.6776695297             17.6776695297            1                        1.0382965811292432E-5
18.3847763109             18.3847763109            1                        9.749552552842173E-6
19.091883092              19.091883092             1                        9.217911042772252E-6
19.7989898732             19.7989898732            1                        8.712972909717815E-6
20.5060966544             20.5060966544            1                        8.282770495363332E-6
21.2132034356             21.2132034356            1                        7.939118089923153E-6
21.9203102168             21.9203102168            1                        7.592842052819086E-6
22.627416998              22.627416998             1                        7.343466913250362E-6
23.3345237792             23.3345237792            1                        7.037690726401407E-6
24.0416305603             24.0416305603            1                        6.822121196409419E-6
24.7487373415             24.7487373415            1                        6.598509576000086E-6
25.4558441227             25.4558441227            1                        6.3841922774291455E-6
26.1629509039             26.1629509039            1                        6.191343087457529E-6
26.8700576851             26.8700576851            1                        6.024485459787352E-6
27.5771644663             27.5771644663            1                        5.8246499447491956E-6
28.2842712475             28.2842712475            1                        5.620641810992125E-6
28.9913780286             28.9913780286            1                        5.441631982887543E-6
29.6984848098             29.6984848098            1                        5.275771541741123E-6
30.405591591              30.405591591             1                        5.104311853894249E-6
31.1126983722             31.1126983722            1                        4.946760453540792E-6
31.8198051534             31.8198051534            1                        4.812542637050125E-6
32.5269119346             32.5269119346            1                        4.674410339351227E-6
33.2340187158             33.2340187158            1                        4.546660774361719E-6
33.941125497              33.941125497             1                        4.424009887212379E-6
34.6482322781             34.6482322781            1                        4.322553514625003E-6
35.3553390593             35.3553390593            1                        4.2067404532772085E-6
36.0624458405             36.0624458405            1                        4.156766104110378E-6
36.7695526217             36.7695526217            1                        4.008297841346745E-6
37.4766594029             37.4766594029            1                        3.944017237055563E-6
38.1837661841             38.1837661841            1                        3.824526868163303E-6
38.8908729653             38.8908729653            1                        3.748145576673852E-6
39.5979797464             39.5979797464            1                        3.6489060359658436E-6
40.3050865276             40.3050865276            1                        3.5740340430680857E-6
41.0121933088             41.0121933088            1                        3.486829892744905E-6
41.71930009               41.71930009              1                        3.424156173787594E-6
42.4264068712             42.4264068712            1                        3.3397707330416272E-6
43.1335136524             43.1335136524            1                        3.2416264596488793E-6
43.8406204336             43.8406204336            1                        3.187695958585448E-6
44.5477272148             44.5477272148            1                        3.113972621037689E-6
45.2548339959             45.2548339959            1                        3.0553961432678167E-6
45.9619407771             45.9619407771            1                        3.0207343844618607E-6
46.6690475583             46.6690475583            1                        2.9425310859013788E-6
47.3761543395             47.3761543395            1                        2.9075181711523135E-6
48.0832611207             48.0832611207            1                        2.8564196521601977E-6
48.7903679019             48.7903679019            1                        2.797190412806532E-6
49.4974746831             49.4974746831            1                        2.7432033232700046E-6
50.2045814642             50.2045814642            1                        2.7018363125361893E-6
50.9116882454             50.9116882454            1                        2.643331253159254E-6
51.6187950266             51.6187950266            1                        2.600019059715347E-6
52.3259018078             52.3259018078            1                        2.550031109126465E-6
53.033008589              53.033008589             1                        2.512446118148694E-6
53.7401153702             53.7401153702            1                        2.468182583721208E-6
54.4472221514             54.4472221514            1                        2.417956216965927E-6
55.1543289326             55.1543289326            1                        2.3693908876270617E-6
55.8614357137             55.8614357137            1                        2.3395855622487947E-6
56.5685424949             56.5685424949            1                        2.293385939476035E-6
57.2756492761             57.2756492761            1                        2.258480417207928E-6
57.9827560573             57.9827560573            1                        2.2344115637948823E-6
58.6898628385             58.6898628385            1                        2.1944564338316027E-6
59.3969696197             59.3969696197            1                        2.159397311067845E-6
60.1040764009             60.1040764009            1                        2.132201222978726E-6
60.811183182              60.811183182             1                        2.100013887784853E-6
61.5182899632             61.5182899632            1                        2.066866801058151E-6
62.2253967444             62.2253967444            1                        2.0362022032867924E-6
62.9325035256             62.9325035256            1                        2.0071344361361968E-6
63.6396103068             63.6396103068            1                        1.9695698940441093E-6
64.346717088              64.346717088             1                        1.9627338695539017E-6
65.0538238692             65.0538238692            1                        1.8931583983800313E-6
65.7609306503             65.7609306503            1                        1.8763391300063043E-6
66.4680374315             66.4680374315            1                        1.8350960190930992E-6
67.1751442127             67.1751442127            1                        1.8098136727252737E-6
67.8822509939             67.8822509939            1                        1.79448838466323E-6
68.5893577751             68.5893577751            1                        1.756184159911085E-6
69.2964645563             69.2964645563            1                        1.751501437021517E-6
70.0035713375             70.0035713375            1                        1.7349223954163833E-6
70.7106781187             70.7106781187            1                        1.7180350156079051E-6
0                         0                        -2                       1.6023737320013457E-5
0.7071067812              0.7071067812             -2                       6.68070459053459E-5
1.4142135624              1.4142135624             -2                       2.0303556554637293E-4
2.1213203436              2.1213203436             -2                       3.4091056119933303E-4
2.8284271247              2.8284271247             -2                       3.8480017162829787E-4
3.5355339059              3.5355339059             -2                       3.812121882417462E-4
4.2426406871              4.2426406871             -2                       3.53072433837262E-4
4.9497474683              4.9497474683             -2                       2.9505644271943764E-4
5.6568542495              5.6568542495             -2                       2.51624698490926E-4
6.3639610307              6.3639610307             -2                       2.0423201302460474E-4
7.0710678119              7.0710678119             -2                       1.6746811413124356E-4
7.7781745931              7.7781745931             -2                       1.3979672000395227E-4
8.4852813742              8.4852813742             -2                       1.1485536516558359E-4
9.1923881554              9.1923881554             -2                       9.639299906356433E-5
9.8994949366              9.8994949366             -2                       7.930767094081936E-5
10.6066017178             10.6066017178            -2                       6.638341516828745E-5
11.313708499              11.313708499             -2                       5.538105233699465E-5
12.0208152802             12.0208152802            -2                       4.643570202880557E-5
12.7279220614             12.7279220614            -2                       3.8701104370152746E-5
13.4350288425             13.4350288425            -2                       3.172950336082454E-5
14.1421356237             14.1421356237            -2                       2.5930350032895963E-5
14.8492424049             14.8492424049            -2                       2.1063968714335386E-5
15.5563491861             15.5563491861            -2                       1.708063597160014E-5
16.2634559673             16.2634559673            -2                       1.3634855937373084E-5
16.9705627485             16.9705627485            -2                       1.0974329930257841E-5
17.6776695297             17.6776695297            -2                       8.308391539186256E-6
18.3847763109             18.3847763109            -2                       6.31718238967306E-6
19.091883092              19.091883092             -2                       4.78486828418383E-6
19.7989898732             19.7989898732            -2                       3.659736071571416E-6
20.5060966544             20.5060966544            -2                       2.8953072512642753E-6
21.2132034356             21.2132034356            -2                       2.5767957658675064E-6
21.9203102168             21.9203102168            -2                       2.532427689258032E-6
22.627416998              22.627416998             -2                       2.6663110449607654E-6
23.3345237792             23.3345237792            -2                       2.790570233644922E-6
24.0416305603             24.0416305603            -2                       3.0255615095622045E-6
24.7487373415             24.7487373415            -2                       3.0905709701120955E-6
25.4558441227             25.4558441227            -2                       3.1472871911461023E-6
26.1629509039             26.1629509039            -2                       3.133580114476607E-6
26.8700576851             26.8700576851            -2                       3.084940236829696E-6
27.5771644663             27.5771644663            -2                       3.024078491066639E-6
28.2842712475             28.2842712475            -2                       2.8944987879147066E-6
28.9913780286             28.9913780286            -2                       2.7664304318269623E-6
29.6984848098             29.6984848098            -2                       2.597482910345843E-6
30.405591591              30.405591591             -2                       2.448446614409385E-6
31.1126983722             31.1126983722            -2                       2.2536679328635343E-6
31.8198051534             31.8198051534            -2                       2.070777791088978E-6
32.5269119346             32.5269119346            -2                       1.9656597726256557E-6
33.2340187158             33.2340187158            -2                       1.789881734345605E-6
33.941125497              33.941125497             -2                       1.599189035632059E-6
34.6482322781             34.6482322781            -2                       1.482943799950766E-6
35.3553390593             35.3553390593            -2                       1.395209535282453E-6
36.0624458405             36.0624458405            -2                       1.249466951029902E-6
36.7695526217             36.7695526217            -2                       1.1827541825986513E-6
37.4766594029             37.4766594029            -2                       1.135518208407832E-6
38.1837661841             38.1837661841            -2                       1.0933832541208966E-6
38.8908729653             38.8908729653            -2                       1.0786528016785273E-6
39.5979797464             39.5979797464            -2                       1.0510274375491053E-6
40.3050865276             40.3050865276            -2                       1.0289668848802872E-6
41.0121933088             41.0121933088            -2                       1.0257342565135357E-6
41.71930009               41.71930009              -2                       1.0211688191797164E-6
42.4264068712             42.4264068712            -2                       1.0260983922252577E-6
43.1335136524             43.1335136524            -2                       1.0165950300084493E-6
43.8406204336             43.8406204336            -2                       1.0164646464629846E-6
44.5477272148             44.5477272148            -2                       9.931924184012646E-7
45.2548339959             45.2548339959            -2                       1.0289836551364864E-6
45.9619407771             45.9619407771            -2                       9.942014427144764E-7
46.6690475583             46.6690475583            -2                       9.697928237663886E-7
47.3761543395             47.3761543395            -2                       9.700760141564625E-7
48.0832611207             48.0832611207            -2                       9.476816120574522E-7
48.7903679019             48.7903679019            -2                       9.305761280830026E-7
49.4974746831             49.4974746831            -2                       9.240231155720329E-7
50.2045814642             50.2045814642            -2                       8.966306859105086E-7
50.9116882454             50.9116882454            -2                       8.685241741640568E-7
51.6187950266             51.6187950266            -2                       8.66100231602115E-7
52.3259018078             52.3259018078            -2                       8.387319834585972E-7
53.033008589              53.033008589             -2                       8.186006991724927E-7
53.7401153702             53.7401153702            -2                       8.059902487076244E-7
54.4472221514             54.4472221514            -2                       7.807042118542139E-7
55.1543289326             55.1543289326            -2                       7.691071095196641E-7
55.8614357137             55.8614357137            -2                       7.51312825738692E-7
56.5685424949             56.5685424949            -2                       7.430508025780755E-7
57.2756492761             57.2756492761            -2                       7.428261646568504E-7
57.9827560573             57.9827560573            -2                       7.244530263438289E-7
58.6898628385             58.6898628385            -2                       7.066401833457038E-7
59.3969696197             59.3969696197            -2                       6.892415878177711E-7
60.1040764009             60.1040764009            -2                       6.721166240768811E-7
60.811183182              60.811183182             -2                       6.73558623736048E-7
61.5182899632             61.5182899632            -2                       6.662210703714702E-7
62.2253967444             62.2253967444            -2                       6.551529727334649E-7
62.9325035256             62.9325035256            -2                       6.494937414958302E-7
63.6396103068             63.6396103068            -2                       6.416126179279257E-7
64.346717088              64.346717088             -2                       6.225961707195382E-7
65.0538238692             65.0538238692            -2                       6.166133651368447E-7
65.7609306503             65.7609306503            -2                       6.020313761429379E-7
66.4680374315             66.4680374315            -2                       5.989755189018407E-7
67.1751442127             67.1751442127            -2                       5.876456303822791E-7
67.8822509939             67.8822509939            -2                       5.747711119222357E-7
68.5893577751             68.5893577751            -2                       5.826025327645298E-7
69.2964645563             69.2964645563            -2                       5.685325900660024E-7
70.0035713375             70.0035713375            -2                       5.624355377553717E-7
70.7106781187             70.7106781187            -2                       5.537173860210722E-7
0                         0                        -7                       0.3246578359668521
0.7071067812              0.7071067812             -7                       0.06393309920705664
1.4142135624              1.4142135624             -7                       0.07032879461061185
2.1213203436              2.1213203436             -7                       0.01426323662792128
2.8284271247              2.8284271247             -7                       0.005566605012836099
3.5355339059              3.5355339059             -7                       0.0036367498140850323
4.2426406871              4.2426406871             -7                       0.0023817530605105184
4.9497474683              4.9497474683             -7                       0.001703294668223627
5.6568542495              5.6568542495             -7                       0.001266082788622809
6.3639610307              6.3639610307             -7                       9.864325938775632E-4
7.0710678119              7.0710678119             -7                       7.691523311867878E-4
7.7781745931              7.7781745931             -7                       6.117510040622099E-4
8.4852813742              8.4852813742             -7                       4.920109856875162E-4
9.1923881554              9.1923881554             -7                       3.979052410989286E-4
9.8994949366              9.8994949366             -7                       3.332717077659926E-4
10.6066017178             10.6066017178            -7                       2.75765167150009E-4
11.313708499              11.313708499             -7                       2.2439317185527356E-4
12.0208152802             12.0208152802            -7                       1.896988200511889E-4
12.7279220614             12.7279220614            -7                       1.5746522790170963E-4
13.4350288425             13.4350288425            -7                       1.3245496641454526E-4
14.1421356237             14.1421356237            -7                       1.1067783036616649E-4
14.8492424049             14.8492424049            -7                       9.778008072034748E-5
15.5563491861             15.5563491861            -7                       7.971276311726373E-5
16.2634559673             16.2634559673            -7                       6.925963811771772E-5
16.9705627485             16.9705627485            -7                       5.7988925881201224E-5
17.6776695297             17.6776695297            -7                       5.0152959544735827E-5
18.3847763109             18.3847763109            -7                       4.537781699742062E-5
19.091883092              19.091883092             -7                       3.6808845872379435E-5
19.7989898732             19.7989898732            -7                       3.243697520302463E-5
20.5060966544             20.5060966544            -7                       2.7193128050552826E-5
21.2132034356             21.2132034356            -7                       2.4846490298761432E-5
21.9203102168             21.9203102168            -7                       2.099693309229347E-5
22.627416998              22.627416998             -7                       1.831638432210608E-5
23.3345237792             23.3345237792            -7                       1.5832801964693818E-5
24.0416305603             24.0416305603            -7                       1.3869370759135433E-5
24.7487373415             24.7487373415            -7                       1.2009959228066885E-5
25.4558441227             25.4558441227            -7                       1.0464114704604256E-5
26.1629509039             26.1629509039            -7                       9.07838822218525E-6
26.8700576851             26.8700576851            -7                       7.743177880911488E-6
27.5771644663             27.5771644663            -7                       6.975084600259583E-6
28.2842712475             28.2842712475            -7                       6.032949181996605E-6
28.9913780286             28.9913780286            -7                       5.203941423976118E-6
29.6984848098             29.6984848098            -7                       4.574451457207835E-6
30.405591591              30.405591591             -7                       3.953691881904394E-6
31.1126983722             31.1126983722            -7                       3.394125942342732E-6
31.8198051534             31.8198051534            -7                       2.948405268304017E-6
32.5269119346             32.5269119346            -7                       2.551425327299319E-6
33.2340187158             33.2340187158            -7                       2.238384385213812E-6
33.941125497              33.941125497             -7                       1.9077784279245496E-6
34.6482322781             34.6482322781            -7                       1.677822530731334E-6
35.3553390593             35.3553390593            -7                       1.511466226617485E-6
36.0624458405             36.0624458405            -7                       1.2880936629302369E-6
36.7695526217             36.7695526217            -7                       1.176847647628906E-6
37.4766594029             37.4766594029            -7                       1.0401482725828938E-6
38.1837661841             38.1837661841            -7                       9.360265421474663E-7
38.8908729653             38.8908729653            -7                       8.595538684273921E-7
39.5979797464             39.5979797464            -7                       7.871863514418364E-7
40.3050865276             40.3050865276            -7                       7.307813640552404E-7
41.0121933088             41.0121933088            -7                       6.604672920497147E-7
41.71930009               41.71930009              -7                       6.21733624078543E-7
42.4264068712             42.4264068712            -7                       5.604967195048359E-7
43.1335136524             43.1335136524            -7                       5.11377425178532E-7
43.8406204336             43.8406204336            -7                       4.781704507436299E-7
44.5477272148             44.5477272148            -7                       4.3756153029703566E-7
45.2548339959             45.2548339959            -7                       3.826132411827658E-7
45.9619407771             45.9619407771            -7                       3.440405554618484E-7
46.6690475583             46.6690475583            -7                       3.0377807050681663E-7
47.3761543395             47.3761543395            -7                       2.640829454300666E-7
48.0832611207             48.0832611207            -7                       2.3165310478557377E-7
48.7903679019             48.7903679019            -7                       1.9458556627646314E-7
49.4974746831             49.4974746831            -7                       1.6036052176878002E-7
50.2045814642             50.2045814642            -7                       1.309873539225642E-7
50.9116882454             50.9116882454            -7                       9.931831716991748E-8
51.6187950266             51.6187950266            -7                       7.424057961274282E-8
52.3259018078             52.3259018078            -7                       5.410925862391248E-8
53.033008589              53.033008589             -7                       3.3394396372821216E-8
53.7401153702             53.7401153702            -7                       1.9712188649467662E-8
54.4472221514             54.4472221514            -7                       2.083553343050536E-8
55.1543289326             55.1543289326            -7                       3.1084873834027596E-8
55.8614357137             55.8614357137            -7                       4.239769308954096E-8
56.5685424949             56.5685424949            -7                       5.231593162300922E-8
57.2756492761             57.2756492761            -7                       6.138703766007289E-8
57.9827560573             57.9827560573            -7                       6.744254866046755E-8
58.6898628385             58.6898628385            -7                       7.448549943000774E-8
59.3969696197             59.3969696197            -7                       7.776148194170041E-8
60.1040764009             60.1040764009            -7                       7.998229134590628E-8
60.811183182              60.811183182             -7                       8.084015606194376E-8
61.5182899632             61.5182899632            -7                       8.3770015193014E-8
62.2253967444             62.2253967444            -7                       8.266546308712024E-8
62.9325035256             62.9325035256            -7                       8.173054455620272E-8
63.6396103068             63.6396103068            -7                       8.072221737933037E-8
64.346717088              64.346717088             -7                       7.685531079743775E-8
65.0538238692             65.0538238692            -7                       7.392022912272368E-8
65.7609306503             65.7609306503            -7                       7.249710179971394E-8
66.4680374315             66.4680374315            -7                       6.846897884835542E-8
67.1751442127             67.1751442127            -7                       6.891788519008727E-8
67.8822509939             67.8822509939            -7                       6.5108714335926E-8
68.5893577751             68.5893577751            -7                       6.476801913765441E-8
69.2964645563             69.2964645563            -7                       6.099530331763819E-8
70.0035713375             70.0035713375            -7                       5.88982690804944E-8
70.7106781187             70.7106781187            -7                       5.629017503330858E-8
