% Model:              HMD_med2_10MHz_100_output.mph
% Version:            COMSOL 4.4.0.195
% Date:               Jun 8 2016, 11:34
% Dimension:          3
% Nodes:              303
% Expressions:        1
% Description:        
% Length unit:        m
% x                       y                        z                        abs(emw.Hy) (A/m) @ freq=1e7
0                         0                        0.5                      1.1471660430662185E-4
0                         1                        0.5                      1.0401314251285098E-4
0                         2                        0.5                      7.15269522285215E-5
0                         3                        0.5                      3.7534948534415174E-5
0                         4                        0.5                      4.616155814361017E-5
0                         5                        0.5                      6.276966059215186E-5
0                         6                        0.5                      7.297379566005204E-5
0                         7                        0.5                      7.113451836674235E-5
0                         8                        0.5                      6.523060954129317E-5
0                         9                        0.5                      5.662307799851964E-5
0                         10                       0.5                      4.735584588390937E-5
0                         11                       0.5                      3.9138348932608444E-5
0                         12                       0.5                      3.2342787571222854E-5
0                         13                       0.5                      2.725840139743286E-5
0                         14                       0.5                      2.263757786065593E-5
0                         15                       0.5                      1.9427355936343088E-5
0                         16                       0.5                      1.696295173111635E-5
0                         17                       0.5                      1.4990967840773532E-5
0                         18                       0.5                      1.3444123504789644E-5
0                         19                       0.5                      1.218809234979863E-5
0                         20                       0.5                      1.1093165129053796E-5
0                         21                       0.5                      1.017177313199997E-5
0                         22                       0.5                      9.403984261670337E-6
0                         23                       0.5                      8.585556180348872E-6
0                         24                       0.5                      7.911809070760603E-6
0                         25                       0.5                      7.304161751858481E-6
0                         26                       0.5                      6.742975582737405E-6
0                         27                       0.5                      6.215770139551554E-6
0                         28                       0.5                      5.773284627012484E-6
0                         29                       0.5                      5.328575536396709E-6
0                         30                       0.5                      4.921745276853641E-6
0                         31                       0.5                      4.526208713070106E-6
0                         32                       0.5                      4.177791025181036E-6
0                         33                       0.5                      3.8499307787184235E-6
0                         34                       0.5                      3.5529473223558405E-6
0                         35                       0.5                      3.279632429268747E-6
0                         36                       0.5                      3.0240702770914343E-6
0                         37                       0.5                      2.837837765901166E-6
0                         38                       0.5                      2.6444924302807466E-6
0                         39                       0.5                      2.489677443632555E-6
0                         40                       0.5                      2.358222928471102E-6
0                         41                       0.5                      2.2338869279360007E-6
0                         42                       0.5                      2.1293871238356627E-6
0                         43                       0.5                      2.0370621668673835E-6
0                         44                       0.5                      1.9506268741438786E-6
0                         45                       0.5                      1.8646947804123456E-6
0                         46                       0.5                      1.7909394689122072E-6
0                         47                       0.5                      1.7124403934835643E-6
0                         48                       0.5                      1.6414349108828648E-6
0                         49                       0.5                      1.5663628736205188E-6
0                         50                       0.5                      1.492137681676146E-6
0                         51                       0.5                      1.4177169421126715E-6
0                         52                       0.5                      1.3691290960159346E-6
0                         53                       0.5                      1.297500422374021E-6
0                         54                       0.5                      1.2439004784660796E-6
0                         55                       0.5                      1.1881109526406604E-6
0                         56                       0.5                      1.1370058813755405E-6
0                         57                       0.5                      1.0882304941837673E-6
0                         58                       0.5                      1.0428339189588358E-6
0                         59                       0.5                      1.0004359902718987E-6
0                         60                       0.5                      9.544308020351636E-7
0                         61                       0.5                      9.187786683387243E-7
0                         62                       0.5                      8.717311873266655E-7
0                         63                       0.5                      8.378869470505909E-7
0                         64                       0.5                      7.99791612981408E-7
0                         65                       0.5                      7.619436472759161E-7
0                         66                       0.5                      7.309841399639972E-7
0                         67                       0.5                      7.018921820444749E-7
0                         68                       0.5                      6.781538056269949E-7
0                         69                       0.5                      6.585575699252998E-7
0                         70                       0.5                      6.383252480012283E-7
0                         71                       0.5                      6.231363714737654E-7
0                         72                       0.5                      6.076396748892142E-7
0                         73                       0.5                      5.943587284613209E-7
0                         74                       0.5                      5.815977345275526E-7
0                         75                       0.5                      5.646781006065289E-7
0                         76                       0.5                      5.51692260080119E-7
0                         77                       0.5                      5.348374032544355E-7
0                         78                       0.5                      5.213764245059199E-7
0                         79                       0.5                      5.092120276284461E-7
0                         80                       0.5                      4.916931459519258E-7
0                         81                       0.5                      4.7611964118077666E-7
0                         82                       0.5                      4.6315476617069074E-7
0                         83                       0.5                      4.5455872444670844E-7
0                         84                       0.5                      4.462873261756811E-7
0                         85                       0.5                      4.388992570431065E-7
0                         86                       0.5                      4.3200986996712593E-7
0                         87                       0.5                      4.2708533178644034E-7
0                         88                       0.5                      4.2213548512566663E-7
0                         89                       0.5                      4.182271529437029E-7
0                         90                       0.5                      4.1276524789038613E-7
0                         91                       0.5                      4.045711869385916E-7
0                         92                       0.5                      3.992948871618232E-7
0                         93                       0.5                      3.906232937377361E-7
0                         94                       0.5                      3.8356560593156724E-7
0                         95                       0.5                      3.73514629327077E-7
0                         96                       0.5                      3.6546091194183866E-7
0                         97                       0.5                      3.5500337075566227E-7
0                         98                       0.5                      3.450817935052209E-7
0                         99                       0.5                      3.362037897103944E-7
0                         100                      0.5                      3.289727290486879E-7
0                         0                        -2                       0.0020600393070774148
0                         1                        -2                       0.001915132984180453
0                         2                        -2                       0.0014929216390743186
0                         3                        -2                       0.0010322915437228138
0                         4                        -2                       6.706170291930613E-4
0                         5                        -2                       4.7029135643456845E-4
0                         6                        -2                       3.5948637430861417E-4
0                         7                        -2                       2.729505037159343E-4
0                         8                        -2                       2.1167913149928086E-4
0                         9                        -2                       1.656489080728474E-4
0                         10                       -2                       1.3114768692152148E-4
0                         11                       -2                       1.0523035255263679E-4
0                         12                       -2                       8.268339257649871E-5
0                         13                       -2                       6.682035421168497E-5
0                         14                       -2                       5.3368172133206466E-5
0                         15                       -2                       4.28720520142974E-5
0                         16                       -2                       3.442002925229284E-5
0                         17                       -2                       2.8560855273081182E-5
0                         18                       -2                       2.23869879517096E-5
0                         19                       -2                       1.8214160977497332E-5
0                         20                       -2                       1.4270041845432273E-5
0                         21                       -2                       1.1382183207237928E-5
0                         22                       -2                       8.847076756461754E-6
0                         23                       -2                       6.9455581481917905E-6
0                         24                       -2                       5.455996049302508E-6
0                         25                       -2                       4.016342401061206E-6
0                         26                       -2                       2.8615242494513697E-6
0                         27                       -2                       2.027498405530435E-6
0                         28                       -2                       1.3236233510465311E-6
0                         29                       -2                       7.800392936990234E-7
0                         30                       -2                       5.356947161797868E-7
0                         31                       -2                       4.932861118360151E-7
0                         32                       -2                       7.427642922992702E-7
0                         33                       -2                       8.705275460096745E-7
0                         34                       -2                       9.872468696539977E-7
0                         35                       -2                       1.075667430776463E-6
0                         36                       -2                       1.1071533610730878E-6
0                         37                       -2                       1.1409568609739383E-6
0                         38                       -2                       1.1158477230474766E-6
0                         39                       -2                       1.1099837737551977E-6
0                         40                       -2                       1.0743383554757629E-6
0                         41                       -2                       1.0419857879107605E-6
0                         42                       -2                       9.78604238603412E-7
0                         43                       -2                       9.347835012308187E-7
0                         44                       -2                       8.726068596599541E-7
0                         45                       -2                       8.141448108511828E-7
0                         46                       -2                       7.627474800730052E-7
0                         47                       -2                       6.952818038083369E-7
0                         48                       -2                       6.295572020408545E-7
0                         49                       -2                       5.751051996059765E-7
0                         50                       -2                       5.236266728640065E-7
0                         51                       -2                       4.775244882680454E-7
0                         52                       -2                       4.411807175692362E-7
0                         53                       -2                       3.8768966144075083E-7
0                         54                       -2                       3.7441578213293725E-7
0                         55                       -2                       3.3843845245365407E-7
0                         56                       -2                       3.209982157140486E-7
0                         57                       -2                       3.101850084307275E-7
0                         58                       -2                       2.9567894298902827E-7
0                         59                       -2                       2.8815104404672887E-7
0                         60                       -2                       2.7584902299122477E-7
0                         61                       -2                       2.6966462058646367E-7
0                         62                       -2                       2.5782062831444083E-7
0                         63                       -2                       2.544675464624446E-7
0                         64                       -2                       2.455412606003263E-7
0                         65                       -2                       2.3673972370734905E-7
0                         66                       -2                       2.3300832029435577E-7
0                         67                       -2                       2.247020373887455E-7
0                         68                       -2                       2.203273438890336E-7
0                         69                       -2                       2.1527995951691275E-7
0                         70                       -2                       2.070706707958609E-7
0                         71                       -2                       2.059267637846144E-7
0                         72                       -2                       1.9835166299282825E-7
0                         73                       -2                       1.9411732523405866E-7
0                         74                       -2                       1.8783138149331867E-7
0                         75                       -2                       1.848250963636474E-7
0                         76                       -2                       1.7793672884339926E-7
0                         77                       -2                       1.7196814132308248E-7
0                         78                       -2                       1.6726763535545122E-7
0                         79                       -2                       1.6151713107478886E-7
0                         80                       -2                       1.595029562746E-7
0                         81                       -2                       1.512322700986709E-7
0                         82                       -2                       1.5207866001337736E-7
0                         83                       -2                       1.4383084682395785E-7
0                         84                       -2                       1.4018220316021382E-7
0                         85                       -2                       1.3880422299035088E-7
0                         86                       -2                       1.3568779614470247E-7
0                         87                       -2                       1.348173032073333E-7
0                         88                       -2                       1.3359795940183776E-7
0                         89                       -2                       1.3374518114685773E-7
0                         90                       -2                       1.3125999705987688E-7
0                         91                       -2                       1.2846121080557227E-7
0                         92                       -2                       1.2438503714211592E-7
0                         93                       -2                       1.235268688252319E-7
0                         94                       -2                       1.199215675190601E-7
0                         95                       -2                       1.1816603926366252E-7
0                         96                       -2                       1.1393932453432782E-7
0                         97                       -2                       1.1168683863750828E-7
0                         98                       -2                       1.1067602849929919E-7
0                         99                       -2                       1.0630397144523499E-7
0                         100                      -2                       1.0145156172192444E-7
0                         0                        -7                       0.6572829201896148
0                         1                        -7                       0.1398784190900677
0                         2                        -7                       0.06053028064281873
0                         3                        -7                       0.02115709133049657
0                         4                        -7                       0.008185499117599861
0                         5                        -7                       0.003774441064219793
0                         6                        -7                       0.0021645215824327743
0                         7                        -7                       0.0014161748104860267
0                         8                        -7                       9.989015103855263E-4
0                         9                        -7                       6.77174102364454E-4
0                         10                       -7                       5.171477613494466E-4
0                         11                       -7                       3.9450694164114487E-4
0                         12                       -7                       3.0426816209337427E-4
0                         13                       -7                       2.4357634902963426E-4
0                         14                       -7                       1.9170661781253503E-4
0                         15                       -7                       1.5679193525229427E-4
0                         16                       -7                       1.2552476773325404E-4
0                         17                       -7                       1.0133957138152732E-4
0                         18                       -7                       8.031058106434662E-5
0                         19                       -7                       7.029404289161584E-5
0                         20                       -7                       5.664526291574516E-5
0                         21                       -7                       4.7630702617960425E-5
0                         22                       -7                       4.0028190536930706E-5
0                         23                       -7                       3.4193885012850415E-5
0                         24                       -7                       2.772936450226768E-5
0                         25                       -7                       2.3740830375458074E-5
0                         26                       -7                       2.0397781783540436E-5
0                         27                       -7                       1.6995622059978515E-5
0                         28                       -7                       1.4444265087766348E-5
0                         29                       -7                       1.2386865467326916E-5
0                         30                       -7                       1.0565893141956817E-5
0                         31                       -7                       9.092916141657566E-6
0                         32                       -7                       7.834425829792561E-6
0                         33                       -7                       6.750813564028711E-6
0                         34                       -7                       5.698672853470462E-6
0                         35                       -7                       5.093699931715017E-6
0                         36                       -7                       4.243108008661842E-6
0                         37                       -7                       3.6901105666944824E-6
0                         38                       -7                       3.213876772688202E-6
0                         39                       -7                       2.7227553107865195E-6
0                         40                       -7                       2.392955330489538E-6
0                         41                       -7                       2.010581384709134E-6
0                         42                       -7                       1.7982205068289294E-6
0                         43                       -7                       1.509011602241012E-6
0                         44                       -7                       1.3114621917818877E-6
0                         45                       -7                       1.1150274154830387E-6
0                         46                       -7                       1.0194434882857444E-6
0                         47                       -7                       8.357235687364431E-7
0                         48                       -7                       7.210750043261392E-7
0                         49                       -7                       6.236243319397859E-7
0                         50                       -7                       5.461632524493355E-7
0                         51                       -7                       4.7013920493225386E-7
0                         52                       -7                       4.1906959500831243E-7
0                         53                       -7                       3.638755163435209E-7
0                         54                       -7                       3.36429676189831E-7
0                         55                       -7                       2.980340253138705E-7
0                         56                       -7                       2.67988843253471E-7
0                         57                       -7                       2.4234124723618334E-7
0                         58                       -7                       2.2460476643250306E-7
0                         59                       -7                       2.0126813633051476E-7
0                         60                       -7                       1.8425331585791066E-7
0                         61                       -7                       1.6273303502374292E-7
0                         62                       -7                       1.522914537565053E-7
0                         63                       -7                       1.3561810081440742E-7
0                         64                       -7                       1.2158313728132612E-7
0                         65                       -7                       1.095584571486714E-7
0                         66                       -7                       9.660567937184912E-8
0                         67                       -7                       8.782758263775472E-8
0                         68                       -7                       7.6069948647647E-8
0                         69                       -7                       6.648706070784641E-8
0                         70                       -7                       5.600976744653807E-8
0                         71                       -7                       4.8683732715386956E-8
0                         72                       -7                       3.927865710812404E-8
0                         73                       -7                       3.207157053049466E-8
0                         74                       -7                       2.5075708482268514E-8
0                         75                       -7                       1.8731289393328898E-8
0                         76                       -7                       1.3220299532763588E-8
0                         77                       -7                       8.286186234989237E-9
0                         78                       -7                       3.842746974667195E-9
0                         79                       -7                       5.087706113424602E-10
0                         80                       -7                       3.34908697362586E-9
0                         81                       -7                       6.510422146327625E-9
0                         82                       -7                       8.714138518575941E-9
0                         83                       -7                       1.0613794578814295E-8
0                         84                       -7                       1.2176747448606039E-8
0                         85                       -7                       1.3438665869874696E-8
0                         86                       -7                       1.4243780218428144E-8
0                         87                       -7                       1.5042734934527767E-8
0                         88                       -7                       1.5785160280781383E-8
0                         89                       -7                       1.621190587015736E-8
0                         90                       -7                       1.6021595629688147E-8
0                         91                       -7                       1.61457377264096E-8
0                         92                       -7                       1.5658647237138796E-8
0                         93                       -7                       1.4933675227647042E-8
0                         94                       -7                       1.45408158211666E-8
0                         95                       -7                       1.4209929040512474E-8
0                         96                       -7                       1.293597558279214E-8
0                         97                       -7                       1.2155331988392008E-8
0                         98                       -7                       1.1853277675543176E-8
0                         99                       -7                       1.1083787216440241E-8
0                         100                      -7                       1.0358260940052364E-8
