% Model:              VMD_layered_2016_100k_Hermes_soil2_mesh_study.mph
% Version:            COMSOL 4.4.0.195
% Date:               Jun 7 2016, 10:15
% Dimension:          2
% Nodes:              303
% Expressions:        2
% Description:        Magnetic field, r component, Magnetic field, z component
% Length unit:        m
% r                       z                        abs(emw.Hr) (A/m) @ freq=1e5 abs(emw.Hz) (A/m) @ freq=1e5
0                         1                        6.133843572449011E-10    3.086228606915466E-4
1                         1                        5.5970500026264976E-5    2.9448860698079525E-4
2                         1                        9.985781325991341E-5     2.567163955177156E-4
3                         1                        1.2537761069411694E-4    2.0581716854278526E-4
4                         1                        1.3284133910514723E-4    1.5418196586015342E-4
5                         1                        1.2715076903567187E-4    1.0790214061210754E-4
6                         1                        1.1402667699642231E-4    7.20534089333203E-5
7                         1                        9.783862821349314E-5     4.542385415326877E-5
8                         1                        8.193446340372394E-5     2.6720362891936117E-5
9                         1                        6.722122068509654E-5     1.4557663818014893E-5
10                        1                        5.494663986426775E-5     7.442854510190106E-6
11                        1                        4.458069071685132E-5     5.056350407127135E-6
12                        1                        3.6213290870079386E-5    5.5871130120937145E-6
13                        1                        2.947210654997593E-5     6.5177571512890125E-6
14                        1                        2.4037196771267686E-5    7.117721986542868E-6
15                        1                        1.9718394943130632E-5    7.302899590503662E-6
16                        1                        1.6259435397350475E-5    7.22258043653018E-6
17                        1                        1.3479571789040226E-5    6.977306871804464E-6
18                        1                        1.1237487034302474E-5    6.6361851184406245E-6
19                        1                        9.421338375944355E-6     6.246046805480474E-6
20                        1                        7.944010225876136E-6     5.838724702643808E-6
21                        1                        6.736483100817186E-6     5.434582021126806E-6
22                        1                        5.744302834574202E-6     5.0438528429872744E-6
23                        1                        4.925517536839004E-6     4.672557778329656E-6
24                        1                        4.246759689116583E-6     4.3247519861888254E-6
25                        1                        3.6815828685947274E-6    4.001914317623914E-6
26                        1                        3.208923193387239E-6     3.7039258983709944E-6
27                        1                        2.8120855289406713E-6    3.430060576155311E-6
28                        1                        2.4774324154669787E-6    3.178730839874981E-6
29                        1                        2.194235067008119E-6     2.9483664290090638E-6
30                        1                        1.9535038021221524E-6    2.736831159437243E-6
31                        1                        1.748376340159911E-6     2.5436415051056362E-6
32                        1                        1.5728562474203801E-6    2.36714748095416E-6
33                        1                        1.4220229656351064E-6    2.205048083025551E-6
34                        1                        1.2919974029501581E-6    2.0564051867640647E-6
35                        1                        1.1794587966110588E-6    1.919978212139702E-6
36                        1                        1.081690841018861E-6     1.7946336756788391E-6
37                        1                        9.964155272435592E-7     1.6793523015634265E-6
38                        1                        9.217196055611839E-7     1.5732019585121548E-6
39                        1                        8.560297475943185E-7     1.4753470628220047E-6
40                        1                        7.979979593847633E-7     1.3850264724333734E-6
41                        1                        7.465088933461325E-7     1.301564553290454E-6
42                        1                        7.006149185095668E-7     1.224345304411765E-6
43                        1                        6.595240275591919E-7     1.1528091092263373E-6
44                        1                        6.225666661524308E-7     1.0864624960455145E-6
45                        1                        5.89176974941056E-7      1.0248606617820988E-6
46                        1                        5.589293410221465E-7     9.674511768784337E-7
47                        1                        5.312511999096432E-7     9.14303500741179E-7
48                        1                        5.059740798546637E-7     8.646500239105151E-7
49                        1                        4.827417320462864E-7     8.18337402426381E-7
50                        1                        4.613093712532316E-7     7.750962203224081E-7
51                        1                        4.414659833783168E-7     7.346802467167674E-7
52                        1                        4.2302883574791734E-7    6.968658008524144E-7
53                        1                        4.0584365011103045E-7    6.614476472665577E-7
54                        1                        3.8977506022244855E-7    6.28250656605396E-7
55                        1                        3.7471079165648654E-7    5.971088619696775E-7
56                        1                        3.605506607744137E-7     5.678571312815379E-7
57                        1                        3.472059432802357E-7     5.403647630713076E-7
58                        1                        3.346021216428737E-7     5.145081774828494E-7
59                        1                        3.226755168665266E-7     4.901595125919009E-7
60                        1                        3.113674015619188E-7     4.672169433061968E-7
61                        1                        3.0062706744775846E-7    4.455830084798624E-7
62                        1                        2.9044103646623335E-7    4.2512733339066034E-7
63                        1                        2.806753253616142E-7     4.0588796050705875E-7
64                        1                        2.7138906097672526E-7    3.876679941738273E-7
65                        1                        2.6251894765555315E-7    3.704382497061912E-7
66                        1                        2.54036982181676E-7      3.54133935821596E-7
67                        1                        2.459175145722296E-7     3.3869441070064324E-7
68                        1                        2.3813785105517075E-7    3.240647343919948E-7
69                        1                        2.306768827160888E-7     3.101938886653968E-7
70                        1                        2.2351560027128097E-7    2.970352447387256E-7
71                        1                        2.166366602139097E-7     2.8454498359072216E-7
72                        1                        2.1002451034834794E-7    2.726820634832588E-7
73                        1                        2.036648736811962E-7     2.61408644460214E-7
74                        1                        1.975431998913996E-7     2.5068979968221435E-7
75                        1                        1.9164913960259316E-7    2.404927028797326E-7
76                        1                        1.8596980638556297E-7    2.3078695486774005E-7
77                        1                        1.8050983661825245E-7    2.215306968250563E-7
78                        1                        1.7522921456491914E-7    2.1272669658088914E-7
79                        1                        1.701209214701597E-7     2.043474661673289E-7
80                        1                        1.6520378448346373E-7    1.963445389073168E-7
81                        1                        1.6045514767250651E-7    1.8870984114558816E-7
82                        1                        1.558686054071515E-7     1.8142330919470554E-7
83                        1                        1.5143639168928124E-7    1.7446595605570821E-7
84                        1                        1.471521729396582E-7     1.678202242171438E-7
85                        1                        1.4300964602146876E-7    1.6146951024593816E-7
86                        1                        1.3900287124107664E-7    1.55398461885208E-7
87                        1                        1.351263852488763E-7     1.4959248953314274E-7
88                        1                        1.313750564554744E-7     1.4403799177930128E-7
89                        1                        1.277436317549605E-7     1.3872219390497408E-7
90                        1                        1.2422746239794513E-7    1.336330882109446E-7
91                        1                        1.208298089790447E-7     1.28752985620795E-7
92                        1                        1.1753079578184947E-7    1.240841735063189E-7
93                        1                        1.1433438928705563E-7    1.1960991472821442E-7
94                        1                        1.112300856613165E-7     1.1532617697954219E-7
95                        1                        1.0822786435563802E-7    1.1121255456984138E-7
96                        1                        1.0531720850764636E-7    1.072666562504403E-7
97                        1                        1.0249464190593734E-7    1.0348061869950911E-7
98                        1                        9.975720510127572E-8     9.984646073542947E-8
99                        1                        9.710338792625708E-8     9.635667690517242E-8
100                       1                        9.452518328326976E-8     9.300933106011628E-8
0                         -2                       7.395539291543263E-9     0.0012699280682263484
1                         -2                       3.460051339343385E-4     0.0011281569035198925
2                         -2                       5.271324363882363E-4     8.051550073977248E-4
3                         -2                       5.31031214657123E-4      4.8237927413957254E-4
4                         -2                       4.4361612070552894E-4    2.502015504005602E-4
5                         -2                       3.368606811269738E-4     1.1181816620058134E-4
6                         -2                       2.462927744093952E-4     4.056042345031891E-5
7                         -2                       1.7703581170144025E-4    1.2708541070694448E-5
8                         -2                       1.2770333736433022E-4    2.03120662770271E-5
9                         -2                       9.227315348286352E-5     2.4777013031881242E-5
10                        -2                       6.793714447577783E-5     2.592137973887752E-5
11                        -2                       5.071170713005246E-5     2.4469232513747E-5
12                        -2                       3.849913955884484E-5     2.1867574558395028E-5
13                        -2                       2.933456129817351E-5     2.0066280203943138E-5
14                        -2                       2.275369370383457E-5     1.796074849513328E-5
15                        -2                       1.785475316998388E-5     1.588568237839833E-5
16                        -2                       1.4191641110607174E-5    1.3999385966031616E-5
17                        -2                       1.1385245263397587E-5    1.2404746402139694E-5
18                        -2                       9.197141432696558E-6     1.0975280436835042E-5
19                        -2                       7.540608169393747E-6     9.766111584735574E-6
20                        -2                       6.186442839210256E-6     8.677319983244926E-6
21                        -2                       5.140022166177385E-6     7.76269856310291E-6
22                        -2                       4.289122619727897E-6     6.953444894324161E-6
23                        -2                       3.6059286663366914E-6    6.250503898181051E-6
24                        -2                       3.0536055712744042E-6    5.629428082012657E-6
25                        -2                       2.591901232028654E-6     5.101493408153667E-6
26                        -2                       2.2179479785732873E-6    4.634244186306713E-6
27                        -2                       1.9050558831804959E-6    4.212984970445216E-6
28                        -2                       1.6432215015395758E-6    3.844754967038998E-6
29                        -2                       1.4256464265796801E-6    3.519106114554782E-6
30                        -2                       1.2432605220862773E-6    3.223541795372374E-6
31                        -2                       1.0871130580939066E-6    2.9662718833179402E-6
32                        -2                       9.545291716940831E-7     2.731085179217864E-6
33                        -2                       8.437292622358676E-7     2.522044615236126E-6
34                        -2                       7.470234772102945E-7     2.332674973851879E-6
35                        -2                       6.652742660256978E-7     2.1620546178081487E-6
36                        -2                       5.946341414446587E-7     2.007372683782427E-6
37                        -2                       5.339025087349026E-7     1.8667869804651698E-6
38                        -2                       4.822797743204199E-7     1.7385299703212112E-6
39                        -2                       4.3665814623942524E-7    1.6222949374391248E-6
40                        -2                       3.9791334492183236E-7    1.515655687556994E-6
41                        -2                       3.645680380205375E-7     1.4185271047137558E-6
42                        -2                       3.349122774420692E-7     1.328598923999067E-6
43                        -2                       3.093584564489523E-7     1.2461212834300308E-6
44                        -2                       2.8690005191584255E-7    1.1704678636072414E-6
45                        -2                       2.673567527276408E-7     1.1005330071637087E-6
46                        -2                       2.5078488164008675E-7    1.0360111471814232E-6
47                        -2                       2.3575924190095518E-7    9.76173603082816E-7
48                        -2                       2.22237124739536E-7      9.206852842810262E-7
49                        -2                       2.10857627667442E-7      8.692544124847822E-7
50                        -2                       2.0021659117327422E-7    8.213256068379233E-7
51                        -2                       1.9098172402482568E-7    7.768145824603401E-7
52                        -2                       1.8234572996687078E-7    7.354543680635294E-7
53                        -2                       1.7526554691652567E-7    6.96732591511958E-7
54                        -2                       1.6845055224654225E-7    6.605809812941815E-7
55                        -2                       1.6218335900742562E-7    6.266042785656469E-7
56                        -2                       1.5643372689754228E-7    5.950251683239363E-7
57                        -2                       1.5116944850746216E-7    5.654073788441313E-7
58                        -2                       1.4621941978556787E-7    5.376060217476566E-7
59                        -2                       1.416491440470924E-7     5.114926116521593E-7
60                        -2                       1.3735301963371208E-7    4.869330858666655E-7
61                        -2                       1.3336058736537336E-7    4.6387862825824515E-7
62                        -2                       1.296210904498956E-7     4.4207484203594366E-7
63                        -2                       1.2594567794387613E-7    4.2156541998033993E-7
64                        -2                       1.22452474214415E-7      4.022959007110514E-7
65                        -2                       1.193282819307335E-7     3.840073649916819E-7
66                        -2                       1.1624199966648564E-7    3.6680772294855057E-7
67                        -2                       1.1330407602120582E-7    3.5050235998784355E-7
68                        -2                       1.104306456380819E-7     3.350629287335137E-7
69                        -2                       1.0766508811035573E-7    3.204720971709251E-7
70                        -2                       1.0499973743653111E-7    3.066535603899479E-7
71                        -2                       1.0247971180023533E-7    2.935477364457903E-7
72                        -2                       9.993637212657972E-8     2.8115183460337464E-7
73                        -2                       9.75143189965572E-8      2.6933541516460803E-7
74                        -2                       9.515352138887274E-8     2.581335474445458E-7
75                        -2                       9.288773595423121E-8     2.4751321821773707E-7
76                        -2                       9.073387033989967E-8     2.3737022511463806E-7
77                        -2                       8.856350043580893E-8     2.277656086604609E-7
78                        -2                       8.650779278335616E-8     2.186035382737736E-7
79                        -2                       8.452783603307164E-8     2.0987500358511485E-7
80                        -2                       8.25095385982681E-8      2.0156426305719748E-7
81                        -2                       8.059465010867181E-8     1.9363565443131216E-7
82                        -2                       7.870494743053349E-8     1.8609236860419954E-7
83                        -2                       7.689040791262676E-8     1.788898459474597E-7
84                        -2                       7.517223846406347E-8     1.7200825763693036E-7
85                        -2                       7.340549757487814E-8     1.6544744289435014E-7
86                        -2                       7.171402823439829E-8     1.591796946142717E-7
87                        -2                       7.00668001762852E-8      1.5317263857894048E-7
88                        -2                       6.845323595970088E-8     1.4744509008877468E-7
89                        -2                       6.693442297195195E-8     1.4196055415296876E-7
90                        -2                       6.541013148694763E-8     1.3670467968978438E-7
91                        -2                       6.389897305270501E-8     1.3169686681753524E-7
92                        -2                       6.240960461729724E-8     1.2689075029732557E-7
93                        -2                       6.105924857959688E-8     1.2227225288353277E-7
94                        -2                       5.967508018582894E-8     1.1787025586728374E-7
95                        -2                       5.831970563346147E-8     1.1364129793395945E-7
96                        -2                       5.70093536906095E-8      1.0958982089019825E-7
97                        -2                       5.572817590832743E-8     1.0570023425148414E-7
98                        -2                       5.446487721597273E-8     1.0196431221738195E-7
99                        -2                       5.3245597459943205E-8    9.839479838824305E-8
100                       -2                       5.2061175701513426E-8    9.495435651043677E-8
0                         -7                       6866.411295687759        278234.14965164807
1                         -7                       4.775662138074422E-4     0.08008359967988841
2                         -7                       2.7579083080598023E-5    0.009889506635467416
3                         -7                       3.0068592555297985E-5    0.00292458398452998
4                         -7                       1.0190848979475575E-5    0.0012498722372673002
5                         -7                       1.0115969726038429E-5    6.440725202078321E-4
6                         -7                       8.264774924334825E-6     3.743473519674212E-4
7                         -7                       7.746979284866985E-6     2.3347551567221424E-4
8                         -7                       7.213600541696126E-6     1.5811331243814893E-4
9                         -7                       6.4938598722897885E-6    1.1156901494827913E-4
10                        -7                       5.847430385695576E-6     8.174233731710437E-5
11                        -7                       5.314500367483244E-6     6.213029988264968E-5
12                        -7                       4.804675304355663E-6     4.821559989748867E-5
13                        -7                       4.340810306315661E-6     3.825843542502796E-5
14                        -7                       3.936088890641374E-6     3.090312238543736E-5
15                        -7                       3.5531198404565663E-6    2.5294001498740685E-5
16                        -7                       3.2287644691621938E-6    2.1031389249565075E-5
17                        -7                       2.929284302316685E-6     1.76851232377705E-5
18                        -7                       2.672536685696202E-6     1.503601124685461E-5
19                        -7                       2.4355970643471437E-6    1.290108945461946E-5
20                        -7                       2.2280359095843865E-6    1.1173644023714384E-5
21                        -7                       2.0411391087451114E-6    9.731686658107822E-6
22                        -7                       1.867243516661565E-6     8.540874064448747E-6
23                        -7                       1.7152037043245483E-6    7.532367407883513E-6
24                        -7                       1.5810604812122877E-6    6.694727291580063E-6
25                        -7                       1.4526345578088008E-6    5.968693499095322E-6
26                        -7                       1.3416665227037318E-6    5.3560690448182146E-6
27                        -7                       1.237249454141278E-6     4.818735015751466E-6
28                        -7                       1.1443629668599757E-6    4.3548013411792795E-6
29                        -7                       1.059518689800069E-6     3.949871576660426E-6
30                        -7                       9.824149244142822E-7     3.594665936139933E-6
31                        -7                       9.120220957643448E-7     3.2808033855583937E-6
32                        -7                       8.473654789653439E-7     3.0039450800339044E-6
33                        -7                       7.881541526720981E-7     2.7576347754875205E-6
34                        -7                       7.343952890702495E-7     2.5385313076478787E-6
35                        -7                       6.847543463575866E-7     2.3410641266295136E-6
36                        -7                       6.386645215753716E-7     2.1648177011967926E-6
37                        -7                       5.96686303330293E-7      2.004450706844126E-6
38                        -7                       5.582775257351829E-7     1.8614656117336707E-6
39                        -7                       5.218809345427603E-7     1.730491464090159E-6
40                        -7                       4.889593014088182E-7     1.6127737584773113E-6
41                        -7                       4.579553940654316E-7     1.504325714403077E-6
42                        -7                       4.293853310219122E-7     1.4056320361915109E-6
43                        -7                       4.029021415346586E-7     1.315413515387705E-6
44                        -7                       3.783095440473356E-7     1.232670488033512E-6
45                        -7                       3.5544030503883636E-7    1.1566443509433942E-6
46                        -7                       3.3414178070466677E-7    1.0866707038623558E-6
47                        -7                       3.142795895330642E-7     1.0220667201268363E-6
48                        -7                       2.957937636120687E-7     9.62444830351197E-7
49                        -7                       2.785121374860768E-7     9.072652752463218E-7
50                        -7                       2.6242258968995054E-7    8.561701143370053E-7
51                        -7                       2.473154415798209E-7     8.086559616166224E-7
52                        -7                       2.3321877752240837E-7    7.645512206691904E-7
53                        -7                       2.200007272967907E-7     7.23473719990482E-7
54                        -7                       2.0761096965549994E-7    6.851983671380549E-7
55                        -7                       1.9600772253619058E-7    6.494733131287664E-7
56                        -7                       1.8510831147047932E-7    6.160843964841149E-7
57                        -7                       1.748742465918117E-7     5.848461957088626E-7
58                        -7                       1.6525191338104109E-7    5.555937473230393E-7
59                        -7                       1.5621095655682945E-7    5.281747357710992E-7
60                        -7                       1.477068586718653E-7     5.024425174170727E-7
61                        -7                       1.397021381222406E-7     4.782693082318502E-7
62                        -7                       1.3217110234536365E-7    4.555264023013038E-7
63                        -7                       1.2505407740263745E-7    4.3413856691941126E-7
64                        -7                       1.1835870563284547E-7    4.1398809583891375E-7
65                        -7                       1.1204465448319628E-7    3.949903699797575E-7
66                        -7                       1.0608268882454104E-7    3.770645361892332E-7
67                        -7                       1.0047096575104571E-7    3.601487826226462E-7
68                        -7                       9.51594996200557E-8      3.441498636281487E-7
69                        -7                       9.014188782464453E-8     3.2901737840219595E-7
70                        -7                       8.539706565206512E-8     3.146962158348311E-7
71                        -7                       8.09133462667934E-8      3.011347910370344E-7
72                        -7                       7.667288024112072E-8     2.8828238042464005E-7
73                        -7                       7.266103999845606E-8     2.7609412660641023E-7
74                        -7                       6.886419901229691E-8     2.645282497796893E-7
75                        -7                       6.526969536174144E-8     2.5354623346678306E-7
76                        -7                       6.186497157969337E-8     2.4311417410502823E-7
77                        -7                       5.864795440018445E-8     2.3319017209361265E-7
78                        -7                       5.559176986717589E-8     2.2375655732874028E-7
79                        -7                       5.26892368542676E-8      2.1478028737750538E-7
80                        -7                       4.9945101301280994E-8    2.0623246228768023E-7
81                        -7                       4.7343576326373634E-8    1.98089701134975E-7
82                        -7                       4.487655250694117E-8     1.9032866803049202E-7
83                        -7                       4.2538712433087266E-8    1.8293039165609417E-7
84                        -7                       4.031917422364991E-8     1.758701508702437E-7
85                        -7                       3.8213314899905307E-8    1.6913160258358825E-7
86                        -7                       3.62151396365347E-8      1.6269731377045867E-7
87                        -7                       3.431904083394077E-8     1.5655086743546449E-7
88                        -7                       3.251948728375487E-8     1.5067690704156163E-7
89                        -7                       3.0811554604499206E-8    1.4506110005138292E-7
90                        -7                       2.9190351013745298E-8    1.396899411046333E-7
91                        -7                       2.765120486055395E-8     1.345511689431937E-7
92                        -7                       2.619323788024811E-8     1.2963040587980176E-7
93                        -7                       2.4807087272903494E-8    1.2492074847870257E-7
94                        -7                       2.3487168382123354E-8    1.2040974308279382E-7
95                        -7                       2.2240606745740642E-8    1.1608870151467443E-7
96                        -7                       2.1054299652874633E-8    1.1194429593352411E-7
97                        -7                       1.9928517518845043E-8    1.0797075825572555E-7
98                        -7                       1.886243456760692E-8     1.0416336014352248E-7
99                        -7                       1.785285953125484E-8     1.0049892602801899E-7
100                       -7                       1.689918966379224E-8     9.699496044673667E-8
